                                                                                     
                             WELCOME TO ABACUS                                       
                                                                                     
               'Atomic-orbital Based Ab-initio Computation at UStc'                  
                                                                                     
                     Website: http://abacus.ustc.edu.cn/                             
                                                                                     
    Version: Parallel, in development
    Processor Number is 16
    Start Time is Wed Apr  6 22:26:24 2022
                                                                                     
 ------------------------------------------------------------------------------------

 READING GENERAL INFORMATION
                           global_out_dir = OUT.ABACUS/
                           global_in_card = INPUT
                               pseudo_dir = 
                              orbital_dir = 
                              pseudo_type = auto
                                    DRANK = 1
                                    DSIZE = 16
                                   DCOLOR = 1
                                    GRANK = 1
                                    GSIZE = 1




 >>>>>>>>>>>>>>>>>>>>>>>>>>>>>>>>>>>>>>>>>>>>>>>>>>>>>>>>>>>>>>>>>>>>>>
 |                                                                    |
 | Reading atom information in unitcell:                              |
 | From the input file and the structure file we know the number of   |
 | different elments in this unitcell, then we list the detail        |
 | information for each element, especially the zeta and polar atomic |
 | orbital number for each element. The total atom number is counted. |
 | We calculate the nearest atom distance for each atom and show the  |
 | Cartesian and Direct coordinates for each atom. We list the file   |
 | address for atomic orbitals. The volume and the lattice vectors    |
 | in real and reciprocal space is also shown.                        |
 |                                                                    |
 <<<<<<<<<<<<<<<<<<<<<<<<<<<<<<<<<<<<<<<<<<<<<<<<<<<<<<<<<<<<<<<<<<<<<<




 READING UNITCELL INFORMATION
                                    ntype = 2
                 atom label for species 1 = B
                 atom label for species 2 = N
                  lattice constant (Bohr) = 1.88973
              lattice constant (Angstrom) = 1

 READING ATOM TYPE 1
                               atom label = B
                      L=0, number of zeta = 2
                      L=1, number of zeta = 2
                      L=2, number of zeta = 1
             number of atom for this type = 2
                      start magnetization = FALSE
                      start magnetization = FALSE

 READING ATOM TYPE 2
                               atom label = N
                      L=0, number of zeta = 2
                      L=1, number of zeta = 2
                      L=2, number of zeta = 1
             number of atom for this type = 2
                      start magnetization = FALSE
                      start magnetization = FALSE

                        TOTAL ATOM NUMBER = 4

 CARTESIAN COORDINATES ( UNIT = 1.88973 Bohr ).
         atom                   x                   y                   z                 mag                  vx                  vy                  vz
      tauc_B1       1.27913196009      0.731898193065        5.8155999212                   0                   0                   0                   0
      tauc_B2     -0.032210545327       1.56695877677       1.98818832831                   0                   0                   0                   0
      tauc_N1       1.28477620359      0.830755937008       1.84649465976                   0                   0                   0                   0
      tauc_N2     -0.108774971721       1.47916821202       5.70610008843                   0                   0                   0                   0


 READING ORBITAL FILE NAMES FOR LCAO
 orbital file: /root/Orb_SG15_DZP_E60_Standard_v1.0/B_gga_8au_60Ry_2s2p1d.orb
 orbital file: /root/Orb_SG15_DZP_E60_Standard_v1.0/N_gga_8au_60Ry_2s2p1d.orb

                          Volume (Bohr^3) = 284.324883735
                             Volume (A^3) = 42.1325504849

 Lattice vectors: (Cartesian coordinate: in unit of a_0)
        +2.5124282837                  +0                  +0
        -1.2562141418       +2.1758267189                  +0
                   +0                  +0       +7.7072649002
 Reciprocal vectors: (Cartesian coordinate: in unit of 2 pi/a_0)
       +0.39802131129     +0.229797711204                  -0
                   +0     +0.459595422427                  +0
                   +0                  -0     +0.129747713741




 >>>>>>>>>>>>>>>>>>>>>>>>>>>>>>>>>>>>>>>>>>>>>>>>>>>>>>>>>>>>>>>>>>>>>>
 |                                                                    |
 | Reading pseudopotentials files:                                    |
 | The pseudopotential file is in UPF format. The 'NC' indicates that |
 | the type of pseudopotential is 'norm conserving'. Functional of    |
 | exchange and correlation is decided by 4 given parameters in UPF   |
 | file.  We also read in the 'core correction' if there exists.      |
 | Also we can read the valence electrons number and the maximal      |
 | angular momentum used in this pseudopotential. We also read in the |
 | trail wave function, trail atomic density and local-pseudopotential|
 | on logrithmic grid. The non-local pseudopotential projector is also|
 | read in if there is any.                                           |
 |                                                                    |
 <<<<<<<<<<<<<<<<<<<<<<<<<<<<<<<<<<<<<<<<<<<<<<<<<<<<<<<<<<<<<<<<<<<<<<




                PAO radial cut off (Bohr) = 15

 Read in pseudopotential file is /root/SG15_ONCV_v1.0_upf/B_ONCV_PBE-1.0.upf
                     pseudopotential type = NC
                            functional Ex = PBE
                            functional Ec = 
                          functional GCEx = 
                          functional GCEc = 
                 nonlocal core correction = 0
                        valence electrons = 3
                                     lmax = 1
                           number of zeta = 0
                     number of projectors = 4
                           L of projector = 0
                           L of projector = 0
                           L of projector = 1
                           L of projector = 1

 XC functional updated to : 
                            functional Ex = PBE
                            functional Ec = 
                          functional GCEx = 
                          functional GCEc = 
                PAO radial cut off (Bohr) = 15

 Read in pseudopotential file is /root/SG15_ONCV_v1.0_upf/N_ONCV_PBE-1.0.upf
                     pseudopotential type = NC
                            functional Ex = PBE
                            functional Ec = 
                          functional GCEx = 
                          functional GCEc = 
                 nonlocal core correction = 0
                        valence electrons = 5
                                     lmax = 1
                           number of zeta = 0
                     number of projectors = 4
                           L of projector = 0
                           L of projector = 0
                           L of projector = 1
                           L of projector = 1

 XC functional updated to : 
                            functional Ex = PBE
                            functional Ec = 
                          functional GCEx = 
                          functional GCEc = 
     initial pseudo atomic orbital number = 0
                                   NLOCAL = 52

 SETUP THE ELECTRONS NUMBER
             electron number of element B = 3
       total electron number of element B = 6
             electron number of element N = 5
       total electron number of element N = 10
                           occupied bands = 8
                                   NLOCAL = 52
                                   NBANDS = 18
                                   NBANDS = 18
 DONE : SETUP UNITCELL Time : 0.0353259698769 (SEC)





 >>>>>>>>>>>>>>>>>>>>>>>>>>>>>>>>>>>>>>>>>>>>>>>>>>>>>>>>>>>>>>>>>>>>>>
 |                                                                    |
 | Setup K-points                                                     |
 | We setup the k-points according to input parameters.               |
 | The reduced k-points are set according to symmetry operations.     |
 | We treat the spin as another set of k-points.                      |
 |                                                                    |
 <<<<<<<<<<<<<<<<<<<<<<<<<<<<<<<<<<<<<<<<<<<<<<<<<<<<<<<<<<<<<<<<<<<<<<





 SETUP K-POINTS
                                    nspin = 1
                   Input type of k points = Monkhorst-Pack(Gamma)
                                   nkstot = 125

  KPOINTS            DIRECT_X            DIRECT_Y            DIRECT_Z              WEIGHT
        1                   0                   0                   0               0.008
        2                 0.2                   0                   0               0.008
        3                 0.4                   0                   0               0.008
        4                 0.6                   0                   0               0.008
        5                 0.8                   0                   0               0.008
        6                   0                 0.2                   0               0.008
        7                 0.2                 0.2                   0               0.008
        8                 0.4                 0.2                   0               0.008
        9                 0.6                 0.2                   0               0.008
       10                 0.8                 0.2                   0               0.008
       11                   0                 0.4                   0               0.008
       12                 0.2                 0.4                   0               0.008
       13                 0.4                 0.4                   0               0.008
       14                 0.6                 0.4                   0               0.008
       15                 0.8                 0.4                   0               0.008
       16                   0                 0.6                   0               0.008
       17                 0.2                 0.6                   0               0.008
       18                 0.4                 0.6                   0               0.008
       19                 0.6                 0.6                   0               0.008
       20                 0.8                 0.6                   0               0.008
       21                   0                 0.8                   0               0.008
       22                 0.2                 0.8                   0               0.008
       23                 0.4                 0.8                   0               0.008
       24                 0.6                 0.8                   0               0.008
       25                 0.8                 0.8                   0               0.008
       26                   0                   0                 0.2               0.008
       27                 0.2                   0                 0.2               0.008
       28                 0.4                   0                 0.2               0.008
       29                 0.6                   0                 0.2               0.008
       30                 0.8                   0                 0.2               0.008
       31                   0                 0.2                 0.2               0.008
       32                 0.2                 0.2                 0.2               0.008
       33                 0.4                 0.2                 0.2               0.008
       34                 0.6                 0.2                 0.2               0.008
       35                 0.8                 0.2                 0.2               0.008
       36                   0                 0.4                 0.2               0.008
       37                 0.2                 0.4                 0.2               0.008
       38                 0.4                 0.4                 0.2               0.008
       39                 0.6                 0.4                 0.2               0.008
       40                 0.8                 0.4                 0.2               0.008
       41                   0                 0.6                 0.2               0.008
       42                 0.2                 0.6                 0.2               0.008
       43                 0.4                 0.6                 0.2               0.008
       44                 0.6                 0.6                 0.2               0.008
       45                 0.8                 0.6                 0.2               0.008
       46                   0                 0.8                 0.2               0.008
       47                 0.2                 0.8                 0.2               0.008
       48                 0.4                 0.8                 0.2               0.008
       49                 0.6                 0.8                 0.2               0.008
       50                 0.8                 0.8                 0.2               0.008
       51                   0                   0                 0.4               0.008
       52                 0.2                   0                 0.4               0.008
       53                 0.4                   0                 0.4               0.008
       54                 0.6                   0                 0.4               0.008
       55                 0.8                   0                 0.4               0.008
       56                   0                 0.2                 0.4               0.008
       57                 0.2                 0.2                 0.4               0.008
       58                 0.4                 0.2                 0.4               0.008
       59                 0.6                 0.2                 0.4               0.008
       60                 0.8                 0.2                 0.4               0.008
       61                   0                 0.4                 0.4               0.008
       62                 0.2                 0.4                 0.4               0.008
       63                 0.4                 0.4                 0.4               0.008
       64                 0.6                 0.4                 0.4               0.008
       65                 0.8                 0.4                 0.4               0.008
       66                   0                 0.6                 0.4               0.008
       67                 0.2                 0.6                 0.4               0.008
       68                 0.4                 0.6                 0.4               0.008
       69                 0.6                 0.6                 0.4               0.008
       70                 0.8                 0.6                 0.4               0.008
       71                   0                 0.8                 0.4               0.008
       72                 0.2                 0.8                 0.4               0.008
       73                 0.4                 0.8                 0.4               0.008
       74                 0.6                 0.8                 0.4               0.008
       75                 0.8                 0.8                 0.4               0.008
       76                   0                   0                 0.6               0.008
       77                 0.2                   0                 0.6               0.008
       78                 0.4                   0                 0.6               0.008
       79                 0.6                   0                 0.6               0.008
       80                 0.8                   0                 0.6               0.008
       81                   0                 0.2                 0.6               0.008
       82                 0.2                 0.2                 0.6               0.008
       83                 0.4                 0.2                 0.6               0.008
       84                 0.6                 0.2                 0.6               0.008
       85                 0.8                 0.2                 0.6               0.008
       86                   0                 0.4                 0.6               0.008
       87                 0.2                 0.4                 0.6               0.008
       88                 0.4                 0.4                 0.6               0.008
       89                 0.6                 0.4                 0.6               0.008
       90                 0.8                 0.4                 0.6               0.008
       91                   0                 0.6                 0.6               0.008
       92                 0.2                 0.6                 0.6               0.008
       93                 0.4                 0.6                 0.6               0.008
       94                 0.6                 0.6                 0.6               0.008
       95                 0.8                 0.6                 0.6               0.008
       96                   0                 0.8                 0.6               0.008
       97                 0.2                 0.8                 0.6               0.008
       98                 0.4                 0.8                 0.6               0.008
       99                 0.6                 0.8                 0.6               0.008
      100                 0.8                 0.8                 0.6               0.008
      101                   0                   0                 0.8               0.008
      102                 0.2                   0                 0.8               0.008
      103                 0.4                   0                 0.8               0.008
      104                 0.6                   0                 0.8               0.008
      105                 0.8                   0                 0.8               0.008
      106                   0                 0.2                 0.8               0.008
      107                 0.2                 0.2                 0.8               0.008
      108                 0.4                 0.2                 0.8               0.008
      109                 0.6                 0.2                 0.8               0.008
      110                 0.8                 0.2                 0.8               0.008
      111                   0                 0.4                 0.8               0.008
      112                 0.2                 0.4                 0.8               0.008
      113                 0.4                 0.4                 0.8               0.008
      114                 0.6                 0.4                 0.8               0.008
      115                 0.8                 0.4                 0.8               0.008
      116                   0                 0.6                 0.8               0.008
      117                 0.2                 0.6                 0.8               0.008
      118                 0.4                 0.6                 0.8               0.008
      119                 0.6                 0.6                 0.8               0.008
      120                 0.8                 0.6                 0.8               0.008
      121                   0                 0.8                 0.8               0.008
      122                 0.2                 0.8                 0.8               0.008
      123                 0.4                 0.8                 0.8               0.008
      124                 0.6                 0.8                 0.8               0.008
      125                 0.8                 0.8                 0.8               0.008

           k-point number in this process = 125
       minimum distributed K point number = 125

  KPOINTS         CARTESIAN_X         CARTESIAN_Y         CARTESIAN_Z              WEIGHT
        1                   0                   0                   0               0.016
        2      0.079604262258     0.0459595422408                   0               0.016
        3      0.159208524516     0.0919190844817                   0               0.016
        4      0.238812786774      0.137878626723                   0               0.016
        5      0.318417049032      0.183838168963                   0               0.016
        6                   0     0.0919190844853                   0               0.016
        7      0.079604262258      0.137878626726                   0               0.016
        8      0.159208524516      0.183838168967                   0               0.016
        9      0.238812786774      0.229797711208                   0               0.016
       10      0.318417049032      0.275757253449                   0               0.016
       11                   0      0.183838168971                   0               0.016
       12      0.079604262258      0.229797711211                   0               0.016
       13      0.159208524516      0.275757253452                   0               0.016
       14      0.238812786774      0.321716795693                   0               0.016
       15      0.318417049032      0.367676337934                   0               0.016
       16                   0      0.275757253456                   0               0.016
       17      0.079604262258      0.321716795697                   0               0.016
       18      0.159208524516      0.367676337938                   0               0.016
       19      0.238812786774      0.413635880178                   0               0.016
       20      0.318417049032      0.459595422419                   0               0.016
       21                   0      0.367676337941                   0               0.016
       22      0.079604262258      0.413635880182                   0               0.016
       23      0.159208524516      0.459595422423                   0               0.016
       24      0.238812786774      0.505554964664                   0               0.016
       25      0.318417049032      0.551514506905                   0               0.016
       26                   0                   0     0.0259495427483               0.016
       27      0.079604262258     0.0459595422408     0.0259495427483               0.016
       28      0.159208524516     0.0919190844817     0.0259495427483               0.016
       29      0.238812786774      0.137878626723     0.0259495427483               0.016
       30      0.318417049032      0.183838168963     0.0259495427483               0.016
       31                   0     0.0919190844853     0.0259495427483               0.016
       32      0.079604262258      0.137878626726     0.0259495427483               0.016
       33      0.159208524516      0.183838168967     0.0259495427483               0.016
       34      0.238812786774      0.229797711208     0.0259495427483               0.016
       35      0.318417049032      0.275757253449     0.0259495427483               0.016
       36                   0      0.183838168971     0.0259495427483               0.016
       37      0.079604262258      0.229797711211     0.0259495427483               0.016
       38      0.159208524516      0.275757253452     0.0259495427483               0.016
       39      0.238812786774      0.321716795693     0.0259495427483               0.016
       40      0.318417049032      0.367676337934     0.0259495427483               0.016
       41                   0      0.275757253456     0.0259495427483               0.016
       42      0.079604262258      0.321716795697     0.0259495427483               0.016
       43      0.159208524516      0.367676337938     0.0259495427483               0.016
       44      0.238812786774      0.413635880178     0.0259495427483               0.016
       45      0.318417049032      0.459595422419     0.0259495427483               0.016
       46                   0      0.367676337941     0.0259495427483               0.016
       47      0.079604262258      0.413635880182     0.0259495427483               0.016
       48      0.159208524516      0.459595422423     0.0259495427483               0.016
       49      0.238812786774      0.505554964664     0.0259495427483               0.016
       50      0.318417049032      0.551514506905     0.0259495427483               0.016
       51                   0                   0     0.0518990854965               0.016
       52      0.079604262258     0.0459595422408     0.0518990854965               0.016
       53      0.159208524516     0.0919190844817     0.0518990854965               0.016
       54      0.238812786774      0.137878626723     0.0518990854965               0.016
       55      0.318417049032      0.183838168963     0.0518990854965               0.016
       56                   0     0.0919190844853     0.0518990854965               0.016
       57      0.079604262258      0.137878626726     0.0518990854965               0.016
       58      0.159208524516      0.183838168967     0.0518990854965               0.016
       59      0.238812786774      0.229797711208     0.0518990854965               0.016
       60      0.318417049032      0.275757253449     0.0518990854965               0.016
       61                   0      0.183838168971     0.0518990854965               0.016
       62      0.079604262258      0.229797711211     0.0518990854965               0.016
       63      0.159208524516      0.275757253452     0.0518990854965               0.016
       64      0.238812786774      0.321716795693     0.0518990854965               0.016
       65      0.318417049032      0.367676337934     0.0518990854965               0.016
       66                   0      0.275757253456     0.0518990854965               0.016
       67      0.079604262258      0.321716795697     0.0518990854965               0.016
       68      0.159208524516      0.367676337938     0.0518990854965               0.016
       69      0.238812786774      0.413635880178     0.0518990854965               0.016
       70      0.318417049032      0.459595422419     0.0518990854965               0.016
       71                   0      0.367676337941     0.0518990854965               0.016
       72      0.079604262258      0.413635880182     0.0518990854965               0.016
       73      0.159208524516      0.459595422423     0.0518990854965               0.016
       74      0.238812786774      0.505554964664     0.0518990854965               0.016
       75      0.318417049032      0.551514506905     0.0518990854965               0.016
       76                   0                   0     0.0778486282448               0.016
       77      0.079604262258     0.0459595422408     0.0778486282448               0.016
       78      0.159208524516     0.0919190844817     0.0778486282448               0.016
       79      0.238812786774      0.137878626723     0.0778486282448               0.016
       80      0.318417049032      0.183838168963     0.0778486282448               0.016
       81                   0     0.0919190844853     0.0778486282448               0.016
       82      0.079604262258      0.137878626726     0.0778486282448               0.016
       83      0.159208524516      0.183838168967     0.0778486282448               0.016
       84      0.238812786774      0.229797711208     0.0778486282448               0.016
       85      0.318417049032      0.275757253449     0.0778486282448               0.016
       86                   0      0.183838168971     0.0778486282448               0.016
       87      0.079604262258      0.229797711211     0.0778486282448               0.016
       88      0.159208524516      0.275757253452     0.0778486282448               0.016
       89      0.238812786774      0.321716795693     0.0778486282448               0.016
       90      0.318417049032      0.367676337934     0.0778486282448               0.016
       91                   0      0.275757253456     0.0778486282448               0.016
       92      0.079604262258      0.321716795697     0.0778486282448               0.016
       93      0.159208524516      0.367676337938     0.0778486282448               0.016
       94      0.238812786774      0.413635880178     0.0778486282448               0.016
       95      0.318417049032      0.459595422419     0.0778486282448               0.016
       96                   0      0.367676337941     0.0778486282448               0.016
       97      0.079604262258      0.413635880182     0.0778486282448               0.016
       98      0.159208524516      0.459595422423     0.0778486282448               0.016
       99      0.238812786774      0.505554964664     0.0778486282448               0.016
      100      0.318417049032      0.551514506905     0.0778486282448               0.016
      101                   0                   0      0.103798170993               0.016
      102      0.079604262258     0.0459595422408      0.103798170993               0.016
      103      0.159208524516     0.0919190844817      0.103798170993               0.016
      104      0.238812786774      0.137878626723      0.103798170993               0.016
      105      0.318417049032      0.183838168963      0.103798170993               0.016
      106                   0     0.0919190844853      0.103798170993               0.016
      107      0.079604262258      0.137878626726      0.103798170993               0.016
      108      0.159208524516      0.183838168967      0.103798170993               0.016
      109      0.238812786774      0.229797711208      0.103798170993               0.016
      110      0.318417049032      0.275757253449      0.103798170993               0.016
      111                   0      0.183838168971      0.103798170993               0.016
      112      0.079604262258      0.229797711211      0.103798170993               0.016
      113      0.159208524516      0.275757253452      0.103798170993               0.016
      114      0.238812786774      0.321716795693      0.103798170993               0.016
      115      0.318417049032      0.367676337934      0.103798170993               0.016
      116                   0      0.275757253456      0.103798170993               0.016
      117      0.079604262258      0.321716795697      0.103798170993               0.016
      118      0.159208524516      0.367676337938      0.103798170993               0.016
      119      0.238812786774      0.413635880178      0.103798170993               0.016
      120      0.318417049032      0.459595422419      0.103798170993               0.016
      121                   0      0.367676337941      0.103798170993               0.016
      122      0.079604262258      0.413635880182      0.103798170993               0.016
      123      0.159208524516      0.459595422423      0.103798170993               0.016
      124      0.238812786774      0.505554964664      0.103798170993               0.016
      125      0.318417049032      0.551514506905      0.103798170993               0.016

  KPOINTS            DIRECT_X            DIRECT_Y            DIRECT_Z              WEIGHT
        1                   0                   0                   0               0.016
        2                 0.2                   0                   0               0.016
        3                 0.4                   0                   0               0.016
        4                 0.6                   0                   0               0.016
        5                 0.8                   0                   0               0.016
        6                   0                 0.2                   0               0.016
        7                 0.2                 0.2                   0               0.016
        8                 0.4                 0.2                   0               0.016
        9                 0.6                 0.2                   0               0.016
       10                 0.8                 0.2                   0               0.016
       11                   0                 0.4                   0               0.016
       12                 0.2                 0.4                   0               0.016
       13                 0.4                 0.4                   0               0.016
       14                 0.6                 0.4                   0               0.016
       15                 0.8                 0.4                   0               0.016
       16                   0                 0.6                   0               0.016
       17                 0.2                 0.6                   0               0.016
       18                 0.4                 0.6                   0               0.016
       19                 0.6                 0.6                   0               0.016
       20                 0.8                 0.6                   0               0.016
       21                   0                 0.8                   0               0.016
       22                 0.2                 0.8                   0               0.016
       23                 0.4                 0.8                   0               0.016
       24                 0.6                 0.8                   0               0.016
       25                 0.8                 0.8                   0               0.016
       26                   0                   0                 0.2               0.016
       27                 0.2                   0                 0.2               0.016
       28                 0.4                   0                 0.2               0.016
       29                 0.6                   0                 0.2               0.016
       30                 0.8                   0                 0.2               0.016
       31                   0                 0.2                 0.2               0.016
       32                 0.2                 0.2                 0.2               0.016
       33                 0.4                 0.2                 0.2               0.016
       34                 0.6                 0.2                 0.2               0.016
       35                 0.8                 0.2                 0.2               0.016
       36                   0                 0.4                 0.2               0.016
       37                 0.2                 0.4                 0.2               0.016
       38                 0.4                 0.4                 0.2               0.016
       39                 0.6                 0.4                 0.2               0.016
       40                 0.8                 0.4                 0.2               0.016
       41                   0                 0.6                 0.2               0.016
       42                 0.2                 0.6                 0.2               0.016
       43                 0.4                 0.6                 0.2               0.016
       44                 0.6                 0.6                 0.2               0.016
       45                 0.8                 0.6                 0.2               0.016
       46                   0                 0.8                 0.2               0.016
       47                 0.2                 0.8                 0.2               0.016
       48                 0.4                 0.8                 0.2               0.016
       49                 0.6                 0.8                 0.2               0.016
       50                 0.8                 0.8                 0.2               0.016
       51                   0                   0                 0.4               0.016
       52                 0.2                   0                 0.4               0.016
       53                 0.4                   0                 0.4               0.016
       54                 0.6                   0                 0.4               0.016
       55                 0.8                   0                 0.4               0.016
       56                   0                 0.2                 0.4               0.016
       57                 0.2                 0.2                 0.4               0.016
       58                 0.4                 0.2                 0.4               0.016
       59                 0.6                 0.2                 0.4               0.016
       60                 0.8                 0.2                 0.4               0.016
       61                   0                 0.4                 0.4               0.016
       62                 0.2                 0.4                 0.4               0.016
       63                 0.4                 0.4                 0.4               0.016
       64                 0.6                 0.4                 0.4               0.016
       65                 0.8                 0.4                 0.4               0.016
       66                   0                 0.6                 0.4               0.016
       67                 0.2                 0.6                 0.4               0.016
       68                 0.4                 0.6                 0.4               0.016
       69                 0.6                 0.6                 0.4               0.016
       70                 0.8                 0.6                 0.4               0.016
       71                   0                 0.8                 0.4               0.016
       72                 0.2                 0.8                 0.4               0.016
       73                 0.4                 0.8                 0.4               0.016
       74                 0.6                 0.8                 0.4               0.016
       75                 0.8                 0.8                 0.4               0.016
       76                   0                   0                 0.6               0.016
       77                 0.2                   0                 0.6               0.016
       78                 0.4                   0                 0.6               0.016
       79                 0.6                   0                 0.6               0.016
       80                 0.8                   0                 0.6               0.016
       81                   0                 0.2                 0.6               0.016
       82                 0.2                 0.2                 0.6               0.016
       83                 0.4                 0.2                 0.6               0.016
       84                 0.6                 0.2                 0.6               0.016
       85                 0.8                 0.2                 0.6               0.016
       86                   0                 0.4                 0.6               0.016
       87                 0.2                 0.4                 0.6               0.016
       88                 0.4                 0.4                 0.6               0.016
       89                 0.6                 0.4                 0.6               0.016
       90                 0.8                 0.4                 0.6               0.016
       91                   0                 0.6                 0.6               0.016
       92                 0.2                 0.6                 0.6               0.016
       93                 0.4                 0.6                 0.6               0.016
       94                 0.6                 0.6                 0.6               0.016
       95                 0.8                 0.6                 0.6               0.016
       96                   0                 0.8                 0.6               0.016
       97                 0.2                 0.8                 0.6               0.016
       98                 0.4                 0.8                 0.6               0.016
       99                 0.6                 0.8                 0.6               0.016
      100                 0.8                 0.8                 0.6               0.016
      101                   0                   0                 0.8               0.016
      102                 0.2                   0                 0.8               0.016
      103                 0.4                   0                 0.8               0.016
      104                 0.6                   0                 0.8               0.016
      105                 0.8                   0                 0.8               0.016
      106                   0                 0.2                 0.8               0.016
      107                 0.2                 0.2                 0.8               0.016
      108                 0.4                 0.2                 0.8               0.016
      109                 0.6                 0.2                 0.8               0.016
      110                 0.8                 0.2                 0.8               0.016
      111                   0                 0.4                 0.8               0.016
      112                 0.2                 0.4                 0.8               0.016
      113                 0.4                 0.4                 0.8               0.016
      114                 0.6                 0.4                 0.8               0.016
      115                 0.8                 0.4                 0.8               0.016
      116                   0                 0.6                 0.8               0.016
      117                 0.2                 0.6                 0.8               0.016
      118                 0.4                 0.6                 0.8               0.016
      119                 0.6                 0.6                 0.8               0.016
      120                 0.8                 0.6                 0.8               0.016
      121                   0                 0.8                 0.8               0.016
      122                 0.2                 0.8                 0.8               0.016
      123                 0.4                 0.8                 0.8               0.016
      124                 0.6                 0.8                 0.8               0.016
      125                 0.8                 0.8                 0.8               0.016
 DONE : INIT K-POINTS Time : 0.0385262832644 (SEC)





 >>>>>>>>>>>>>>>>>>>>>>>>>>>>>>>>>>>>>>>>>>>>>>>>>>>>>>>>>>>>>>>>>>>>>>
 |                                                                    |
 | Setup numerical orbitals:                                          |
 | This part setup: numerical atomic orbitals, non-local projectors   |
 | and neutral potential (1D). The atomic orbitals information        |
 | including the radius, angular momentum and zeta number.            |
 | The neutral potential is the sum of local part of pseudopotential  |
 | and potential given by atomic charge, they will cancel out beyond  |
 | a certain radius cutoff, because the Z/r character.                |
 |                                                                    |
 <<<<<<<<<<<<<<<<<<<<<<<<<<<<<<<<<<<<<<<<<<<<<<<<<<<<<<<<<<<<<<<<<<<<<<





 SETUP ONE DIMENSIONAL ORBITALS/POTENTIAL
                        delta k  (1/Bohr) = 0.01
                        delta r    (Bohr) = 0.01
                        dr_uniform (Bohr) = 0.001
                        rmax       (Bohr) = 30
                                    kmesh = 779
      ORBITAL  L  N      nr      dr    RCUT  CHECK_UNIT    NEW_UNIT
            1  0  0     801    0.01       8           1           1
            2  0  1     801    0.01       8           1           1
            3  1  0     801    0.01       8           1           1
            4  1  1     801    0.01       8           1           1
            5  2  0     801    0.01       8           1           1
      ORBITAL  L  N      nr      dr    RCUT  CHECK_UNIT    NEW_UNIT
            1  0  0     801    0.01       8           1           1
            2  0  1     801    0.01       8           1           1
            3  1  0     801    0.01       8           1           1
            4  1  1     801    0.01       8           1           1
            5  2  0     801    0.01       8           1           1
   DESCRIPTOR  L  N      nr      dr    RCUT  CHECK_UNIT    NEW_UNIT
            1  0  0     505    0.01    5.04        6.33           1
            2  0  1     505    0.01    5.04        1.58           1
            3  0  2     505    0.01    5.04       0.704           1
            4  0  3     505    0.01    5.04       0.396           1
            5  0  4     505    0.01    5.04       0.253           1
            6  0  5     505    0.01    5.04       0.176           1
            7  0  6     505    0.01    5.04       0.129           1
            8  0  7     505    0.01    5.04       0.099           1
            9  0  8     505    0.01    5.04      0.0782           1
           10  0  9     505    0.01    5.04      0.0633           1
           11  0 10     505    0.01    5.04      0.0524           1
           12  0 11     505    0.01    5.04       0.044           1
           13  0 12     505    0.01    5.04      0.0375           1
           14  0 13     505    0.01    5.04      0.0323           1
           15  0 14     505    0.01    5.04      0.0282           1
           16  1  0     505    0.01    5.04        2.95           1
           17  1  1     505    0.01    5.04        1.03           1
           18  1  2     505    0.01    5.04       0.521           1
           19  1  3     505    0.01    5.04       0.314           1
           20  1  4     505    0.01    5.04        0.21           1
           21  1  5     505    0.01    5.04        0.15           1
           22  1  6     505    0.01    5.04       0.113           1
           23  1  7     505    0.01    5.04      0.0878           1
           24  1  8     505    0.01    5.04      0.0703           1
           25  1  9     505    0.01    5.04      0.0575           1
           26  1 10     505    0.01    5.04      0.0479           1
           27  1 11     505    0.01    5.04      0.0406           1
           28  1 12     505    0.01    5.04      0.0348           1
           29  1 13     505    0.01    5.04      0.0302           1
           30  1 14     505    0.01    5.04      0.0264           1
           31  2  0     505    0.01    5.04        1.71           1
           32  2  1     505    0.01    5.04       0.728           1
           33  2  2     505    0.01    5.04       0.403           1
           34  2  3     505    0.01    5.04       0.256           1
           35  2  4     505    0.01    5.04       0.177           1
           36  2  5     505    0.01    5.04        0.13           1
           37  2  6     505    0.01    5.04      0.0994           1
           38  2  7     505    0.01    5.04      0.0785           1
           39  2  8     505    0.01    5.04      0.0635           1
           40  2  9     505    0.01    5.04      0.0525           1
           41  2 10     505    0.01    5.04      0.0441           1
           42  2 11     505    0.01    5.04      0.0376           1
           43  2 12     505    0.01    5.04      0.0324           1
           44  2 13     505    0.01    5.04      0.0282           1
           45  2 14     505    0.01    5.04      0.0248           1
 max number of nonlocal projetors among all species is 4

 SETUP THE TWO-CENTER INTEGRATION TABLES

 SETUP THE DIVISION OF H/S MATRIX
 divide the H&S matrix using 2D block algorithms.
                                     nb2d = 1
                  trace_loc_row dimension = 52
                  trace_loc_col dimension = 52
                                     nloc = 169
 Initialize the descriptor index for DeePKS (lcao line)
 lmax of descriptor = 2
 nmax of descriptor= 15
 total basis (all atoms) for descriptor= 
 Type 1 number_of_atoms 2
 Type 2 number_of_atoms 2
 descriptors_per_atom 135
 total_descriptors 540




 >>>>>>>>>>>>>>>>>>>>>>>>>>>>>>>>>>>>>>>>>>>>>>>>>>>>>>>>>>>>>>>>>>>>>>
 |                                                                    |
 | Setup plane waves:                                                 |
 | Use the energy cutoff and the lattice vectors to generate the      |
 | dimensions of FFT grid. The number of FFT grid on each processor   |
 | is 'nrxx'. The number of plane wave basis in reciprocal space is   |
 | different for charege/potential and wave functions. We also set    |
 | the 'sticks' for the parallel of FFT.                              |
 |                                                                    |
 <<<<<<<<<<<<<<<<<<<<<<<<<<<<<<<<<<<<<<<<<<<<<<<<<<<<<<<<<<<<<<<<<<<<<<





 SETUP THE PLANE WAVE BASIS
     energy cutoff for wavefunc (unit:Ry) = 60
            [fft grid for wave functions] = 24, 24, 72
          [fft grid for charge/potential] = 24, 24, 72
                      [fft grid division] = 2, 2, 2
      [big fft grid for charge/potential] = 12, 12, 36
                                     nbxx = 432
                                     nrxx = 3456

 SETUP PLANE WAVES FOR CHARGE/POTENTIAL
                    number of plane waves = 17873
                         number of sticks = 367

 SETUP PLANE WAVES FOR WAVE FUNCTIONS
                    number of plane waves = 4671
                         number of sticks = 151

 PARALLEL PW FOR CHARGE/POTENTIAL
     PROC   COLUMNS(POT)             PW
        1             23           1119
        2             23           1117
        3             23           1117
        4             23           1117
        5             23           1115
        6             23           1119
        7             23           1119
        8             23           1119
        9             23           1119
       10             23           1119
       11             23           1119
       12             23           1117
       13             23           1117
       14             22           1106
       15             23           1117
       16             23           1117
 --------------- sum -------------------
       16            367          17873

 PARALLEL PW FOR WAVE FUNCTIONS
     PROC     COLUMNS(W)             PW
        1             10            296
        2             10            292
        3              9            293
        4              9            289
        5             10            296
        6             10            298
        7             10            298
        8              9            287
        9              9            287
       10              9            285
       11              9            289
       12             10            296
       13              9            289
       14              9            287
       15              9            291
       16             10            298
 --------------- sum -------------------
       16            151           4671

 SETUP COORDINATES OF PLANE WAVES
              number of total plane waves = 17873

 SETUP COORDINATES OF PLANE WAVES
                            number of |g| = 498
                                  max |g| = 21.7
                                  min |g| = 0
 DONE : INIT PLANEWAVE Time : 7.2 (SEC)

 DONE : INIT CHARGE Time : 7.2 (SEC)

 DONE : INIT POTENTIAL Time : 7.2 (SEC)

                                start_pot = atomic

 -------------------------------------------
 SELF-CONSISTENT
 -------------------------------------------




 >>>>>>>>>>>>>>>>>>>>>>>>>>>>>>>>>>>>>>>>>>>>>>>>>>>>>>>>>>>>>>>>>>>>>>
 |                                                                    |
 | Search adjacent atoms:                                             |
 | Set the adjacent atoms for each atom and set the periodic boundary |
 | condition for the atoms on real space FFT grid. For k-dependent    |
 | algorithm, we also need to set the sparse H and S matrix element   |
 | for each atom.                                                     |
 |                                                                    |
 <<<<<<<<<<<<<<<<<<<<<<<<<<<<<<<<<<<<<<<<<<<<<<<<<<<<<<<<<<<<<<<<<<<<<<





 SETUP SEARCHING RADIUS FOR PROGRAM TO SEARCH ADJACENT ATOMS
                  longest orb rcut (Bohr) = 8
   longest nonlocal projector rcut (Bohr) = 1.94
              searching radius is (Bohr)) = 19.9
         searching radius unit is (Bohr)) = 1.89

 SETUP EXTENDED REAL SPACE GRID FOR GRID INTEGRATION
                        [real space grid] = 24, 24, 72
               [big cell numbers in grid] = 12, 12, 36
           [meshcell numbers in big cell] = 2, 2, 2
                      [extended fft grid] = 24, 24, 20
              [dimension of extened grid] = 61, 61, 77
                            UnitCellTotal = 108
              Atom number in sub-FFT-grid = 4
    Local orbitals number in sub-FFT-grid = 52
                                      nnr = 14229
                                     nnrg = 158184

 SETUP ARRAY FOR EXTRA WAVE FUNCTIONS
                                     daug = 0
                                nnrg_last = 0
                                 nnrg_now = 158184

 LCAO ALGORITHM ------------- ELEC =    1 --------------------------------
 Memory of pvpR : 1.21 MB

 Density error is 0.224927726622

       Energy                       Rydberg                            eV
   E_KohnSham                -51.4862320872                -700.506124937
     E_Harris                -51.6307013206                -702.471729697
      E_Fermi               +0.186109773579                +2.53215337417

 LCAO ALGORITHM ------------- ELEC =    2 --------------------------------
 Memory of pvpR : 1.20684814453 MB

 Density error is 0.157635899505

       Energy                       Rydberg                            eV
   E_KohnSham                -51.4170767282                -699.565218007
     E_Harris                -51.5437878393                -701.289211118
      E_Fermi               +0.256751104358                +3.49327798706

 LCAO ALGORITHM ------------- ELEC =    3 --------------------------------
 Memory of pvpR : 1.20684814453 MB

 Density error is 0.0689850260349

       Energy                       Rydberg                            eV
   E_KohnSham                -51.4335476463                -699.789316345
     E_Harris                -51.4545075355                -700.074490267
      E_Fermi               +0.335516630689                +4.56493795113

 LCAO ALGORITHM ------------- ELEC =    4 --------------------------------
 Memory of pvpR : 1.20684814453 MB

 Density error is 0.0228440860062

       Energy                       Rydberg                            eV
   E_KohnSham                -51.4345286555                -699.802663659
     E_Harris                -51.4360878943                -699.823878191
      E_Fermi               +0.380451974947                +5.17631467464

 LCAO ALGORITHM ------------- ELEC =    5 --------------------------------
 Memory of pvpR : 1.20684814453 MB

 Density error is 0.0127404405411

       Energy                       Rydberg                            eV
   E_KohnSham                -51.4351811765                -699.811541663
     E_Harris                -51.4350344716                -699.809545641
      E_Fermi               +0.393563695847                +5.35470878946

 LCAO ALGORITHM ------------- ELEC =    6 --------------------------------
 Memory of pvpR : 1.20684814453 MB

 Density error is 0.00315909566471

       Energy                       Rydberg                            eV
   E_KohnSham                -51.4353634617                 -699.81402178
     E_Harris                -51.4353299364                -699.813565645
      E_Fermi               +0.404756171251                +5.50699022968

 LCAO ALGORITHM ------------- ELEC =    7 --------------------------------
 Memory of pvpR : 1.20684814453 MB

 Density error is 0.00233639609165

       Energy                       Rydberg                            eV
   E_KohnSham                -51.4353783761                  -699.8142247
     E_Harris                -51.4353642124                -699.814031994
      E_Fermi               +0.405131392245                +5.51209537321

 LCAO ALGORITHM ------------- ELEC =    8 --------------------------------
 Memory of pvpR : 1.20684814453 MB

 Density error is 0.000688393413442

       Energy                       Rydberg                            eV
   E_KohnSham                -51.4353920943                -699.814411347
     E_Harris                -51.4353893263                -699.814373687
      E_Fermi               +0.407867475978                +5.54932170218

 LCAO ALGORITHM ------------- ELEC =    9 --------------------------------
 Memory of pvpR : 1.20684814453 MB

 Density error is 0.000343569570526

       Energy                       Rydberg                            eV
   E_KohnSham                -51.4353950308                  -699.8144513
     E_Harris                -51.4353951322                -699.814452679
      E_Fermi                +0.40829186357                +5.55509579159

 LCAO ALGORITHM ------------- ELEC =   10 --------------------------------
 Memory of pvpR : 1.20684814453 MB

 Density error is 0.000151008353761

       Energy                       Rydberg                            eV
   E_KohnSham                 -51.435402682                  -699.8145554
     E_Harris                -51.4354027318                -699.814556077
      E_Fermi               +0.408378236672                +5.55627095793

 LCAO ALGORITHM ------------- ELEC =   11 --------------------------------
 Memory of pvpR : 1.20684814453 MB

 Density error is 1.94165643652e-05

       Energy                       Rydberg                            eV
   E_KohnSham                -51.4354025039                -699.814552976
     E_Harris                -51.4354025036                -699.814552972
      E_Fermi               +0.408440030305                +5.55711170345

 LCAO ALGORITHM ------------- ELEC =   12 --------------------------------
 Memory of pvpR : 1.20684814453 MB

 Density error is 1.68322195395e-05

       Energy                       Rydberg                            eV
   E_KohnSham                -51.4354031377                -699.814561599
     E_Harris                -51.4354031386                -699.814561612
      E_Fermi               +0.408435534348                 +5.5570505328

 LCAO ALGORITHM ------------- ELEC =   13 --------------------------------
 Memory of pvpR : 1.20684814453 MB

 Density error is 7.16672680996e-06

       Energy                       Rydberg                            eV
   E_KohnSham                -51.4354033365                -699.814564305
     E_Harris                -51.4354033368                -699.814564308
      E_Fermi               +0.408449456053                +5.55723994732

 LCAO ALGORITHM ------------- ELEC =   14 --------------------------------
 Memory of pvpR : 1.20684814453 MB

 Density error is 6.66888909734e-06

       Energy                       Rydberg                            eV
   E_KohnSham                -51.4354033419                -699.814564379
     E_Harris                 -51.435403343                -699.814564394
      E_Fermi               +0.408450829405                +5.55725863273

 LCAO ALGORITHM ------------- ELEC =   15 --------------------------------
 Memory of pvpR : 1.20684814453 MB

 Density error is 4.24439219855e-06

       Energy                       Rydberg                            eV
   E_KohnSham                -51.4354033675                -699.814564727
     E_Harris                -51.4354033677                -699.814564729
      E_Fermi               +0.408457325935                +5.55734702256

 LCAO ALGORITHM ------------- ELEC =   16 --------------------------------
 Memory of pvpR : 1.20684814453 MB

 Density error is 3.81047922275e-06

       Energy                       Rydberg                            eV
   E_KohnSham                -51.4354033525                -699.814564522
     E_Harris                -51.4354033529                -699.814564528
      E_Fermi               +0.408458440232                +5.55736218335

 LCAO ALGORITHM ------------- ELEC =   17 --------------------------------
 Memory of pvpR : 1.20684814453 MB

 Density error is 2.28248038425e-06

       Energy                       Rydberg                            eV
   E_KohnSham                -51.4354033549                -699.814564554
     E_Harris                 -51.435403355                -699.814564556
      E_Fermi               +0.408462795018                +5.55742143326

 LCAO ALGORITHM ------------- ELEC =   18 --------------------------------
 Memory of pvpR : 1.20684814453 MB

 Density error is 1.34117553101e-06

       Energy                       Rydberg                            eV
   E_KohnSham                -51.4354033459                -699.814564432
     E_Harris                -51.4354033459                -699.814564433
      E_Fermi               +0.408466422337                +5.55747078545

 LCAO ALGORITHM ------------- ELEC =   19 --------------------------------
 Memory of pvpR : 1.20684814453 MB

 Density error is 9.15849116787e-07

       Energy                       Rydberg                            eV
   E_KohnSham                 -51.435403348                -699.814564462
     E_Harris                -51.4354033481                -699.814564462
      E_Fermi               +0.408467812878                +5.55748970474

 LCAO ALGORITHM ------------- ELEC =   20 --------------------------------
 Memory of pvpR : 1.20684814453 MB

 Density error is 4.30033922674e-07

       Energy                       Rydberg                            eV
   E_KohnSham                -51.4354033521                -699.814564517
     E_Harris                -51.4354033521                -699.814564517
       E_band                -4.82689448772                -65.6732686778
   E_one_elec                -28.3891299756                -386.253928931
    E_Hartree                +21.3493593905                +290.472936361
         E_xc                -14.7077487769                -200.109188118
      E_Ewald                -29.9349146702                -407.285408659
      E_demet             -1.5694578568e-27            -2.13535696233e-26
      E_descf                            +0                            +0
     E_efield                            +0                            +0
        E_exx                            +0                            +0
     E_DeePKS             -0.00307246048679              -0.0418029695002
      E_Fermi               +0.408469387144                +5.55751112372

 charge density convergence is achieved
 final etot is -699.814564517 eV

 STATE ENERGY(eV) AND OCCUPATIONS    NSPIN == 1
 1/125 kpoint (Cartesian) = 0 0 0 (144 pws)
       1       -14.0458      0.0160000
       2       -13.9898      0.0160000
       3       -2.22318      0.0160000
       4       -1.29207      0.0160000
       5      -0.258451      0.0160000
       6       0.651238      0.0160000
       7        2.13042      0.0160000
       8        2.92015      0.0160000
       9        8.84266        0.00000
      10        11.8191        0.00000
      11        12.4405        0.00000
      12        13.3987        0.00000
      13        14.7415        0.00000
      14        15.4621        0.00000
      15        15.9755        0.00000
      16        16.7899        0.00000
      17        18.7986        0.00000
      18        19.3444        0.00000

 2/125 kpoint (Cartesian) = 0.0796043 0.0459595 0.00000 (135 pws)
       1       -13.9548      0.0160000
       2       -13.8624      0.0160000
       3       -1.93312      0.0160000
       4       -1.38926      0.0160000
       5       -1.09992      0.0160000
       6      -0.293955      0.0160000
       7       0.700677      0.0160000
       8        1.26604      0.0160000
       9        9.75956        0.00000
      10        11.6639        0.00000
      11        13.4676        0.00000
      12        13.8511        0.00000
      13        14.7847        0.00000
      14        16.6090        0.00000
      15        17.2720        0.00000
      16        18.0973        0.00000
      17        18.7745        0.00000
      18        21.2437        0.00000

 3/125 kpoint (Cartesian) = 0.159209 0.0919191 0.00000 (129 pws)
       1       -12.4583      0.0160000
       2       -12.2747      0.0160000
       3       -5.26909      0.0160000
       4       -5.13314      0.0160000
       5      -0.893639      0.0160000
       6      -0.544636      0.0160000
       7        1.49678      0.0160000
       8        2.04987      0.0160000
       9        8.43061        0.00000
      10        8.71028        0.00000
      11        12.5270        0.00000
      12        13.3513        0.00000
      13        16.2495        0.00000
      14        20.1665        0.00000
      15        21.5738        0.00000
      16        22.5796        0.00000
      17        22.8690        0.00000
      18        24.1830        0.00000

 4/125 kpoint (Cartesian) = 0.238813 0.137879 0.00000 (125 pws)
       1       -12.4583      0.0160000
       2       -12.2747      0.0160000
       3       -5.26909      0.0160000
       4       -5.13314      0.0160000
       5      -0.893639      0.0160000
       6      -0.544636      0.0160000
       7        1.49678      0.0160000
       8        2.04987      0.0160000
       9        8.43061        0.00000
      10        8.71028        0.00000
      11        12.5270        0.00000
      12        13.3513        0.00000
      13        16.2495        0.00000
      14        20.1665        0.00000
      15        21.5738        0.00000
      16        22.5796        0.00000
      17        22.8690        0.00000
      18        24.1830        0.00000

 5/125 kpoint (Cartesian) = 0.318417 0.183838 0.00000 (117 pws)
       1       -13.9548      0.0160000
       2       -13.8624      0.0160000
       3       -1.93312      0.0160000
       4       -1.38926      0.0160000
       5       -1.09992      0.0160000
       6      -0.293955      0.0160000
       7       0.700677      0.0160000
       8        1.26604      0.0160000
       9        9.75956        0.00000
      10        11.6639        0.00000
      11        13.4676        0.00000
      12        13.8511        0.00000
      13        14.7847        0.00000
      14        16.6090        0.00000
      15        17.2720        0.00000
      16        18.0973        0.00000
      17        18.7745        0.00000
      18        21.2437        0.00000

 6/125 kpoint (Cartesian) = 0.00000 0.0919191 0.00000 (133 pws)
       1       -13.9463      0.0160000
       2       -13.8569      0.0160000
       3       -1.83966      0.0160000
       4       -1.30115      0.0160000
       5       -1.09644      0.0160000
       6      -0.316686      0.0160000
       7       0.546141      0.0160000
       8        1.13719      0.0160000
       9        9.77192        0.00000
      10        11.7190        0.00000
      11        12.9223        0.00000
      12        13.6798        0.00000
      13        14.4725        0.00000
      14        16.6458        0.00000
      15        17.8894        0.00000
      16        18.5745        0.00000
      17        19.2733        0.00000
      18        21.2046        0.00000

 7/125 kpoint (Cartesian) = 0.0796043 0.137879 0.00000 (129 pws)
       1       -12.9584      0.0160000
       2       -12.8192      0.0160000
       3       -3.79018      0.0160000
       4       -3.51825      0.0160000
       5       -1.47313      0.0160000
       6       -1.07764      0.0160000
       7       0.747416      0.0160000
       8        1.41495      0.0160000
       9        9.66919        0.00000
      10        9.85570        0.00000
      11        12.8750        0.00000
      12        15.2022        0.00000
      13        17.1971        0.00000
      14        17.5822        0.00000
      15        18.8814        0.00000
      16        20.3720        0.00000
      17        21.7431        0.00000
      18        24.5636        0.00000

 8/125 kpoint (Cartesian) = 0.159209 0.183838 0.00000 (127 pws)
       1       -11.2710      0.0160000
       2       -11.0652      0.0160000
       3       -5.71058      0.0160000
       4       -5.67634      0.0160000
       5       -2.66424      0.0160000
       6       -2.46400      0.0160000
       7        2.82562      0.0160000
       8        2.98978      0.0160000
       9        7.59166        0.00000
      10        7.75988        0.00000
      11        15.3650        0.00000
      12        15.9389        0.00000
      13        18.1532        0.00000
      14        18.9289        0.00000
      15        20.0973        0.00000
      16        21.7804        0.00000
      17        23.1754        0.00000
      18        23.8839        0.00000

 9/125 kpoint (Cartesian) = 0.238813 0.229798 0.00000 (119 pws)
       1       -12.8868      0.0160000
       2       -12.7757      0.0160000
       3       -3.64623      0.0160000
       4       -3.42515      0.0160000
       5       -1.73509      0.0160000
       6       -1.66490      0.0160000
       7       0.622412      0.0160000
       8        1.27720      0.0160000
       9        10.0008        0.00000
      10        10.3705        0.00000
      11        13.2209        0.00000
      12        15.7871        0.00000
      13        16.0734        0.00000
      14        16.6900        0.00000
      15        19.4339        0.00000
      16        19.8632        0.00000
      17        22.6763        0.00000
      18        23.9115        0.00000

 10/125 kpoint (Cartesian) = 0.318417 0.275757 0.00000 (112 pws)
       1       -13.9307      0.0160000
       2       -13.8454      0.0160000
       3       -1.24870      0.0160000
       4       -1.17422      0.0160000
       5      -0.666347      0.0160000
       6      -0.376691      0.0160000
       7      -0.186780      0.0160000
       8      0.0600093      0.0160000
       9        9.84994        0.00000
      10        11.8582        0.00000
      11        13.3398        0.00000
      12        13.7629        0.00000
      13        14.6708        0.00000
      14        16.3986        0.00000
      15        18.3192        0.00000
      16        18.6766        0.00000
      17        19.5315        0.00000
      18        20.9062        0.00000

 11/125 kpoint (Cartesian) = 0.00000 0.183838 0.00000 (133 pws)
       1       -12.3474      0.0160000
       2       -12.2169      0.0160000
       3       -5.24482      0.0160000
       4       -5.09779      0.0160000
       5       -1.07639      0.0160000
       6      -0.811631      0.0160000
       7        1.36641      0.0160000
       8        1.92985      0.0160000
       9        8.61259        0.00000
      10        9.16380        0.00000
      11        12.1831        0.00000
      12        13.0194        0.00000
      13        16.0533        0.00000
      14        20.2139        0.00000
      15        21.4079        0.00000
      16        23.0581        0.00000
      17        23.8127        0.00000
      18        24.4785        0.00000

 12/125 kpoint (Cartesian) = 0.0796043 0.229798 0.00000 (129 pws)
       1       -11.1505      0.0160000
       2       -11.0068      0.0160000
       3       -5.76166      0.0160000
       4       -5.67756      0.0160000
       5       -2.76428      0.0160000
       6       -2.60924      0.0160000
       7        2.62386      0.0160000
       8        2.92668      0.0160000
       9        7.74115        0.00000
      10        8.16045        0.00000
      11        14.8350        0.00000
      12        15.6368        0.00000
      13        18.2620        0.00000
      14        18.8559        0.00000
      15        19.9931        0.00000
      16        21.7049        0.00000
      17        23.7056        0.00000
      18        23.9848        0.00000

 13/125 kpoint (Cartesian) = 0.159209 0.275757 0.00000 (121 pws)
       1       -10.9039      0.0160000
       2       -10.8736      0.0160000
       3       -5.72099      0.0160000
       4       -5.65405      0.0160000
       5       -3.30640      0.0160000
       6       -3.04990      0.0160000
       7        2.30148      0.0160000
       8        2.71289      0.0160000
       9        8.21424        0.00000
      10        8.89831        0.00000
      11        15.1443        0.00000
      12        15.6924        0.00000
      13        18.1538        0.00000
      14        18.3092        0.00000
      15        19.2551        0.00000
      16        21.2406        0.00000
      17        23.7310        0.00000
      18        24.8476        0.00000

 14/125 kpoint (Cartesian) = 0.238813 0.321717 0.00000 (116 pws)
       1       -12.1521      0.0160000
       2       -12.0643      0.0160000
       3       -4.98039      0.0160000
       4       -4.91708      0.0160000
       5       -2.13663      0.0160000
       6       -1.61293      0.0160000
       7        1.09614      0.0160000
       8        1.67893      0.0160000
       9        9.14209        0.00000
      10        10.0293        0.00000
      11        12.4691        0.00000
      12        13.2518        0.00000
      13        16.3195        0.00000
      14        19.8693        0.00000
      15        20.7176        0.00000
      16        23.5552        0.00000
      17        23.7798        0.00000
      18        24.7926        0.00000

 15/125 kpoint (Cartesian) = 0.318417 0.367676 0.00000 (112 pws)
       1       -12.8494      0.0160000
       2       -12.7492      0.0160000
       3       -3.68115      0.0160000
       4       -3.40453      0.0160000
       5       -1.80775      0.0160000
       6       -1.70149      0.0160000
       7       0.565487      0.0160000
       8        1.22288      0.0160000
       9        10.1500        0.00000
      10        10.6272        0.00000
      11        13.3771        0.00000
      12        14.4496        0.00000
      13        15.4828        0.00000
      14        17.1242        0.00000
      15        19.1835        0.00000
      16        20.9554        0.00000
      17        23.1725        0.00000
      18        23.8250        0.00000

 16/125 kpoint (Cartesian) = 0.00000 0.275757 0.00000 (129 pws)
       1       -12.3474      0.0160000
       2       -12.2169      0.0160000
       3       -5.24482      0.0160000
       4       -5.09779      0.0160000
       5       -1.07639      0.0160000
       6      -0.811631      0.0160000
       7        1.36641      0.0160000
       8        1.92985      0.0160000
       9        8.61259        0.00000
      10        9.16380        0.00000
      11        12.1831        0.00000
      12        13.0194        0.00000
      13        16.0533        0.00000
      14        20.2139        0.00000
      15        21.4079        0.00000
      16        23.0581        0.00000
      17        23.8127        0.00000
      18        24.4785        0.00000

 17/125 kpoint (Cartesian) = 0.0796043 0.321717 0.00000 (118 pws)
       1       -12.8494      0.0160000
       2       -12.7492      0.0160000
       3       -3.68115      0.0160000
       4       -3.40453      0.0160000
       5       -1.80775      0.0160000
       6       -1.70149      0.0160000
       7       0.565487      0.0160000
       8        1.22288      0.0160000
       9        10.1500        0.00000
      10        10.6272        0.00000
      11        13.3771        0.00000
      12        14.4496        0.00000
      13        15.4828        0.00000
      14        17.1242        0.00000
      15        19.1835        0.00000
      16        20.9554        0.00000
      17        23.1725        0.00000
      18        23.8250        0.00000

 18/125 kpoint (Cartesian) = 0.159209 0.367676 0.00000 (118 pws)
       1       -12.1521      0.0160000
       2       -12.0643      0.0160000
       3       -4.98039      0.0160000
       4       -4.91708      0.0160000
       5       -2.13663      0.0160000
       6       -1.61293      0.0160000
       7        1.09614      0.0160000
       8        1.67893      0.0160000
       9        9.14209        0.00000
      10        10.0293        0.00000
      11        12.4691        0.00000
      12        13.2518        0.00000
      13        16.3195        0.00000
      14        19.8693        0.00000
      15        20.7176        0.00000
      16        23.5552        0.00000
      17        23.7798        0.00000
      18        24.7926        0.00000

 19/125 kpoint (Cartesian) = 0.238813 0.413636 0.00000 (116 pws)
       1       -10.9039      0.0160000
       2       -10.8736      0.0160000
       3       -5.72099      0.0160000
       4       -5.65405      0.0160000
       5       -3.30640      0.0160000
       6       -3.04990      0.0160000
       7        2.30148      0.0160000
       8        2.71289      0.0160000
       9        8.21424        0.00000
      10        8.89831        0.00000
      11        15.1443        0.00000
      12        15.6924        0.00000
      13        18.1538        0.00000
      14        18.3092        0.00000
      15        19.2551        0.00000
      16        21.2406        0.00000
      17        23.7310        0.00000
      18        24.8476        0.00000

 20/125 kpoint (Cartesian) = 0.318417 0.459595 0.00000 (112 pws)
       1       -11.1505      0.0160000
       2       -11.0068      0.0160000
       3       -5.76166      0.0160000
       4       -5.67756      0.0160000
       5       -2.76428      0.0160000
       6       -2.60924      0.0160000
       7        2.62386      0.0160000
       8        2.92668      0.0160000
       9        7.74115        0.00000
      10        8.16045        0.00000
      11        14.8350        0.00000
      12        15.6368        0.00000
      13        18.2620        0.00000
      14        18.8559        0.00000
      15        19.9931        0.00000
      16        21.7049        0.00000
      17        23.7056        0.00000
      18        23.9848        0.00000

 21/125 kpoint (Cartesian) = 0.00000 0.367676 0.00000 (120 pws)
       1       -13.9463      0.0160000
       2       -13.8569      0.0160000
       3       -1.83966      0.0160000
       4       -1.30115      0.0160000
       5       -1.09644      0.0160000
       6      -0.316686      0.0160000
       7       0.546141      0.0160000
       8        1.13719      0.0160000
       9        9.77192        0.00000
      10        11.7190        0.00000
      11        12.9223        0.00000
      12        13.6798        0.00000
      13        14.4725        0.00000
      14        16.6458        0.00000
      15        17.8894        0.00000
[...]
       5       -1.73540      0.0160000
       6       -1.66516      0.0160000
       7       0.679017      0.0160000
       8        1.21338      0.0160000
       9        9.98698        0.00000
      10        10.3520        0.00000
      11        13.5161        0.00000
      12        15.7197        0.00000
      13        16.0355        0.00000
      14        16.4482        0.00000
      15        19.5095        0.00000
      16        19.8176        0.00000
      17        22.7431        0.00000
      18        23.7760        0.00000

 110/125 kpoint (Cartesian) = 0.318417 0.275757 0.103798 (112 pws)
       1       -13.9239      0.0160000
       2       -13.8531      0.0160000
       3       -1.20994      0.0160000
       4       -1.14680      0.0160000
       5      -0.673520      0.0160000
       6      -0.443833      0.0160000
       7      -0.192197      0.0160000
       8      0.0609189      0.0160000
       9        10.0261        0.00000
      10        11.6759        0.00000
      11        13.3708        0.00000
      12        13.7378        0.00000
      13        14.7546        0.00000
      14        16.0375        0.00000
      15        18.3207        0.00000
      16        18.9275        0.00000
      17        19.6074        0.00000
      18        20.7468        0.00000

 111/125 kpoint (Cartesian) = 0.00000 0.183838 0.103798 (134 pws)
       1       -12.3432      0.0160000
       2       -12.2209      0.0160000
       3       -5.24403      0.0160000
       4       -5.09884      0.0160000
       5       -1.07632      0.0160000
       6      -0.811733      0.0160000
       7        1.41712      0.0160000
       8        1.87393      0.0160000
       9        8.65757        0.00000
      10        9.08298        0.00000
      11        12.2693        0.00000
      12        13.0191        0.00000
      13        16.3109        0.00000
      14        19.4810        0.00000
      15        21.9149        0.00000
      16        23.0889        0.00000
      17        23.6519        0.00000
      18        24.5110        0.00000

 112/125 kpoint (Cartesian) = 0.0796043 0.229798 0.103798 (129 pws)
       1       -11.1501      0.0160000
       2       -11.0072      0.0160000
       3       -5.75965      0.0160000
       4       -5.67995      0.0160000
       5       -2.76401      0.0160000
       6       -2.60976      0.0160000
       7        2.65463      0.0160000
       8        2.89878      0.0160000
       9        7.77330        0.00000
      10        8.10549        0.00000
      11        14.8797        0.00000
      12        15.6296        0.00000
      13        18.3183        0.00000
      14        18.7852        0.00000
      15        20.2486        0.00000
      16        21.5620        0.00000
      17        23.6846        0.00000
      18        24.0149        0.00000

 113/125 kpoint (Cartesian) = 0.159209 0.275757 0.103798 (119 pws)
       1       -10.9009      0.0160000
       2       -10.8764      0.0160000
       3       -5.71709      0.0160000
       4       -5.65825      0.0160000
       5       -3.30645      0.0160000
       6       -3.05012      0.0160000
       7        2.32645      0.0160000
       8        2.68941      0.0160000
       9        8.23120        0.00000
      10        8.86174        0.00000
      11        15.1954        0.00000
      12        15.6821        0.00000
      13        18.1529        0.00000
      14        18.2715        0.00000
      15        19.4277        0.00000
      16        21.0072        0.00000
      17        23.9427        0.00000
      18        24.9791        0.00000

 114/125 kpoint (Cartesian) = 0.238813 0.321717 0.103798 (115 pws)
       1       -12.1446      0.0160000
       2       -12.0717      0.0160000
       3       -4.97755      0.0160000
       4       -4.92015      0.0160000
       5       -2.13661      0.0160000
       6       -1.61293      0.0160000
       7        1.14021      0.0160000
       8        1.63038      0.0160000
       9        9.16321        0.00000
      10        9.96536        0.00000
      11        12.5992        0.00000
      12        13.2128        0.00000
      13        16.5476        0.00000
      14        19.2288        0.00000
      15        21.1979        0.00000
      16        23.4129        0.00000
      17        23.6286        0.00000
      18        24.8249        0.00000

 115/125 kpoint (Cartesian) = 0.318417 0.367676 0.103798 (113 pws)
       1       -12.8413      0.0160000
       2       -12.7576      0.0160000
       3       -3.68110      0.0160000
       4       -3.40469      0.0160000
       5       -1.80799      0.0160000
       6       -1.70187      0.0160000
       7       0.621741      0.0160000
       8        1.15936      0.0160000
       9        10.1432        0.00000
      10        10.6064        0.00000
      11        13.6647        0.00000
      12        14.4542        0.00000
      13        15.4769        0.00000
      14        16.6261        0.00000
      15        19.4883        0.00000
      16        20.9100        0.00000
      17        23.0738        0.00000
      18        23.7925        0.00000

 116/125 kpoint (Cartesian) = 0.00000 0.275757 0.103798 (130 pws)
       1       -12.3432      0.0160000
       2       -12.2210      0.0160000
       3       -5.24411      0.0160000
       4       -5.09872      0.0160000
       5       -1.07632      0.0160000
       6      -0.811718      0.0160000
       7        1.41784      0.0160000
       8        1.87305      0.0160000
       9        8.64177        0.00000
      10        9.10486        0.00000
      11        12.2721        0.00000
      12        13.0058        0.00000
      13        16.3074        0.00000
      14        19.4724        0.00000
      15        22.0064        0.00000
      16        23.0478        0.00000
      17        23.8330        0.00000
      18        24.2661        0.00000

 117/125 kpoint (Cartesian) = 0.0796043 0.321717 0.103798 (118 pws)
       1       -12.8413      0.0160000
       2       -12.7576      0.0160000
       3       -3.68109      0.0160000
       4       -3.40469      0.0160000
       5       -1.80794      0.0160000
       6       -1.70204      0.0160000
       7       0.623038      0.0160000
       8        1.15794      0.0160000
       9        10.1455        0.00000
      10        10.6093        0.00000
      11        13.6514        0.00000
      12        14.4527        0.00000
      13        15.4692        0.00000
      14        16.6444        0.00000
      15        19.4701        0.00000
      16        20.9364        0.00000
      17        23.0712        0.00000
      18        23.7873        0.00000

 118/125 kpoint (Cartesian) = 0.159209 0.367676 0.103798 (117 pws)
       1       -12.1446      0.0160000
       2       -12.0717      0.0160000
       3       -4.97756      0.0160000
       4       -4.92016      0.0160000
       5       -2.13661      0.0160000
       6       -1.61294      0.0160000
       7        1.14095      0.0160000
       8        1.62940      0.0160000
       9        9.17179        0.00000
      10        9.95631        0.00000
      11        12.5914        0.00000
      12        13.2207        0.00000
      13        16.5381        0.00000
      14        19.1960        0.00000
      15        21.3427        0.00000
      16        23.4667        0.00000
      17        23.5918        0.00000
      18        24.7897        0.00000

 119/125 kpoint (Cartesian) = 0.238813 0.413636 0.103798 (116 pws)
       1       -10.9009      0.0160000
       2       -10.8764      0.0160000
       3       -5.71712      0.0160000
       4       -5.65823      0.0160000
       5       -3.30643      0.0160000
       6       -3.05014      0.0160000
       7        2.32705      0.0160000
       8        2.68873      0.0160000
       9        8.23247        0.00000
      10        8.86026        0.00000
      11        15.2065        0.00000
      12        15.6702        0.00000
      13        18.1182        0.00000
      14        18.3038        0.00000
      15        19.4494        0.00000
      16        20.9782        0.00000
      17        23.9895        0.00000
      18        24.9110        0.00000

 120/125 kpoint (Cartesian) = 0.318417 0.459595 0.103798 (113 pws)
       1       -11.1501      0.0160000
       2       -11.0072      0.0160000
       3       -5.75962      0.0160000
       4       -5.67998      0.0160000
       5       -2.76400      0.0160000
       6       -2.60977      0.0160000
       7        2.65217      0.0160000
       8        2.90163      0.0160000
       9        7.76551        0.00000
      10        8.11351        0.00000
      11        14.8709        0.00000
      12        15.6358        0.00000
      13        18.3283        0.00000
      14        18.7933        0.00000
      15        20.1945        0.00000
      16        21.6320        0.00000
      17        23.7484        0.00000
      18        23.9448        0.00000

 121/125 kpoint (Cartesian) = 0.00000 0.367676 0.103798 (120 pws)
       1       -13.9398      0.0160000
       2       -13.8643      0.0160000
       3       -1.83970      0.0160000
       4       -1.28953      0.0160000
       5       -1.03746      0.0160000
       6      -0.400815      0.0160000
       7       0.546403      0.0160000
       8        1.13726      0.0160000
       9        9.95034        0.00000
      10        11.5377        0.00000
      11        12.9520        0.00000
      12        13.6382        0.00000
      13        14.5995        0.00000
      14        16.1679        0.00000
      15        17.8636        0.00000
      16        18.7619        0.00000
      17        19.5317        0.00000
      18        21.0337        0.00000

 122/125 kpoint (Cartesian) = 0.0796043 0.413636 0.103798 (118 pws)
       1       -13.9239      0.0160000
       2       -13.8531      0.0160000
       3       -1.21957      0.0160000
       4       -1.13300      0.0160000
       5      -0.686184      0.0160000
       6      -0.433955      0.0160000
       7      -0.190216      0.0160000
       8      0.0573309      0.0160000
       9        10.0311        0.00000
      10        11.6717        0.00000
      11        13.3502        0.00000
      12        13.7746        0.00000
      13        14.7083        0.00000
      14        16.0584        0.00000
      15        18.3154        0.00000
      16        19.0328        0.00000
      17        19.5294        0.00000
      18        20.7354        0.00000

 123/125 kpoint (Cartesian) = 0.159209 0.459595 0.103798 (117 pws)
       1       -12.8798      0.0160000
       2       -12.7828      0.0160000
       3       -3.64632      0.0160000
       4       -3.42527      0.0160000
       5       -1.73513      0.0160000
       6       -1.66554      0.0160000
       7       0.681587      0.0160000
       8        1.21038      0.0160000
       9        10.0135        0.00000
      10        10.3316        0.00000
      11        13.4965        0.00000
      12        15.7543        0.00000
      13        15.9846        0.00000
      14        16.4637        0.00000
      15        19.4642        0.00000
      16        19.8958        0.00000
      17        22.7235        0.00000
      18        23.8064        0.00000

 124/125 kpoint (Cartesian) = 0.238813 0.505555 0.103798 (114 pws)
       1       -11.2709      0.0160000
       2       -11.0651      0.0160000
       3       -5.71077      0.0160000
       4       -5.67660      0.0160000
       5       -2.66420      0.0160000
       6       -2.46423      0.0160000
       7        2.84410      0.0160000
       8        2.97855      0.0160000
       9        7.58317        0.00000
      10        7.74091        0.00000
      11        15.4388        0.00000
      12        15.9081        0.00000
      13        18.2150        0.00000
      14        18.8842        0.00000
      15        20.2738        0.00000
      16        21.6801        0.00000
      17        23.2417        0.00000
      18        23.7567        0.00000

 125/125 kpoint (Cartesian) = 0.318417 0.551515 0.103798 (113 pws)
       1       -12.9534      0.0160000
       2       -12.8244      0.0160000
       3       -3.79027      0.0160000
       4       -3.51846      0.0160000
       5       -1.47323      0.0160000
       6       -1.07806      0.0160000
       7       0.806570      0.0160000
       8        1.34765      0.0160000
       9        9.64509        0.00000
      10        9.85137        0.00000
      11        13.1359        0.00000
      12        15.0824        0.00000
      13        17.2020        0.00000
      14        17.4943        0.00000
      15        18.8854        0.00000
      16        19.8308        0.00000
      17        22.2812        0.00000
      18        24.4115        0.00000

 EFERMI = 5.557511123724457 eV
 OUT.ABACUS/ final etot is -699.8145645174004 eV
 Descriptors have been printed to .//descriptor.dat
 Calculate the energy density matrix with k 
                                      irr = 14229
                                 LNNR.nnr = 14229
                                      irr = 14229
                                 LNNR.nnr = 14229
 Calculate the energy density matrix with k 
                                      irr = 14229
                                 LNNR.nnr = 14229
                                      irr = 14229
                                 LNNR.nnr = 14229
 LNNR.nnrg in cal_force_k = 158184
 F_delta has been printed to .//F_delta.dat
 correction force for each atom along direction 1 is -6.51615e-05
 correction force for each atom along direction 2 is 0.000140425
 correction force for each atom along direction 3 is 0.000259757

 ><><><><><><><><><><><><><><><><><><><><><><

    TOTAL-FORCE (eV/Angstrom)

 ><><><><><><><><><><><><><><><><><><><><><><

     atom              x              y              z
       B1     -4.9403065    -0.12900392     -1.4321073
       B2     +2.3125938    -0.22596879     -2.0645386
       N1     -2.3198722    +0.22206525     +2.0618528
       N2     +4.9475848    +0.13290745     +1.4347931


 --------------------------------------------
 !FINAL_ETOT_IS -699.8145645174004 eV
 --------------------------------------------






  |CLASS_NAME---------|NAME---------------|TIME(Sec)-----|CALLS----|AVG------|PER%-------
                                      total         212.04        11       19.   1.0e+02%
               Run_lcao           lcao_line         212.03         1   2.1e+02    1.e+02%
            ORB_control      read_orb_first        0.60784         1      0.61      0.29%
          LCAO_Orbitals       Read_Orbitals        0.60783         1      0.61      0.29%
            NOrbital_Lm       extra_uniform        0.48872        55    0.0089      0.23%
          Mathzone_Add1       Uni_Deriv_Phi        0.45904        55    0.0083      0.22%
            ORB_control      set_orb_tables         6.4506         1       6.5       3.0%
         ORB_gen_tables          gen_tables         6.4506         1       6.5       3.0%
          ORB_table_phi          init_Table         1.2521         1       1.3      0.59%
          ORB_table_phi      cal_ST_Phi12_R         1.2399       210    0.0059      0.58%
         ORB_table_beta     init_Table_Beta        0.51260         1      0.51      0.24%
         ORB_table_beta       VNL_PhiBeta_R        0.50853       104    0.0049      0.24%
        ORB_table_alpha    init_Table_Alpha         4.5065         1       4.5       2.1%
        ORB_table_alpha        S_PhiAlpha_R         4.4770       660    0.0068       2.1%
              LOOP_ions            opt_ions         204.76         1   2.0e+02       97.%
              LOOP_elec     solve_elec_stru         163.01         1   1.6e+02       77.%
            Grid_Driver           Find_atom        0.31568     20440   1.5e-05      0.15%
              LOOP_elec       before_solver        0.20573         1      0.21     0.097%
        LCAO_gen_fixedHbuild_Nonlocal_mu_new        0.17336         2     0.087     0.082%
            LCAO_Deepks      build_psialpha        0.12921         1      0.13     0.061%
         ORB_gen_tables  snap_psialpha_half        0.11990      1742   6.9e-05     0.057%
              LOOP_elec              solver         162.76         1   1.6e+02       77.%
               ELEC_scf                 scf         162.76         1   1.6e+02       77.%
             H_Ewald_pw       compute_ewald        0.12575         1      0.13     0.059%
          ELEC_cbands_k           cal_bands         151.36        20       7.6       71.%
            LCAO_Deepks  cal_projected_DM_k         76.609        22       3.5       36.%
        LCAO_DESCRIPTOR       add_v_delta_k         32.517        20       1.6       15.%
                 Gint_k              vlocal         8.0269        20      0.40       3.8%
             Efficience              each_k         19.861      2500    0.0079       9.4%
             Efficience                 H_k         8.7769      2500    0.0035       4.1%
            LCAO_Hamilt        calculate_Hk         8.7729      2500    0.0035       4.1%
                 Gint_k        folding_vl_k         1.9746      2500   0.00079      0.93%
                 Gint_k              Distri        0.71197      2500   0.00028      0.34%
               LCAO_nnr      folding_fixedH         6.7887      2500    0.0027       3.2%
             Efficience             diago_k         11.081      2500    0.0044       5.2%
      Diago_LCAO_Matrix          elpa_solve         10.511      2500    0.0042       5.0%
      Diago_LCAO_Matrix    gath_eig_complex        0.30579      2500   0.00012      0.14%
      Local_Orbital_Cha           sum_bands         11.126        20      0.56       5.2%
            LCAO_Charge            cal_dk_k         5.3352        20      0.27       2.5%
                 Gint_k           cal_rho_k         5.2923        20      0.26       2.5%
              LOOP_ions        force_stress         37.042         1       37.       17.%
      Force_Stress_LCAO      getForceStress         37.042         1       37.       17.%
           Force_LCAO_k            ftable_k         13.922         1       14.       6.6%
           Force_LCAO_k          allocate_k        0.17872         1      0.18     0.084%
           Force_LCAO_k      cal_foverlap_k        0.25372         1      0.25      0.12%
           Force_LCAO_k           set_EDM_k        0.49445         2      0.25      0.23%
           Force_LCAO_k      cal_fvl_dphi_k         2.8090         1       2.8       1.3%
                 Gint_k     svl_k_RealSpace         2.7947         1       2.8       1.3%
                 Gint_k   evaluate_vl_force         2.6665       432    0.0062       1.3%
           Force_LCAO_kcal_fvnl_dbeta_k_new        0.29683         1      0.30      0.14%
            LCAO_Deepkscal_f_delta_hf_k_new         5.1828         1       5.2       2.4%
            LCAO_Deepks          cal_gdmx_k         23.037         1       23.       11.%
 ----------------------------------------------------------------------------------------

 CLASS_NAME---------|NAME---------------|MEMORY(MB)--------
                                         2.222e+04
        ORB_table_phi               Jl(x)          107.2
      ORB_table_alpha           Table_DSR          8.988
        ORB_table_phi         Table_SR&TR          3.674
  LocalOrbital_Charge      Density_Matrix          1.207
        allocate_pvpR        pvpR_reduced          1.207
       ORB_table_beta            Table_NR          1.171
        init_meshball        meshball_pos          1.108
        Grid_Meshcell        index2normal          1.093
        Grid_Meshcell         index2ucell          1.093
 ----------------------------------------------------------

 Start  Time  : Wed Apr  6 22:26:24 2022
 Finish Time  : Wed Apr  6 22:29:56 2022
 Total  Time  : 0 h 3 mins 32 secs 
