 *********************************************************
 *                                                       *
 *                  WELCOME TO ABACUS                    *
 *                                                       *
 *            'Atomic-orbital Based Ab-initio            *
 *                  Computation at UStc'                 *
 *                                                       *
 *          Website: http://abacus.ustc.edu.cn/          *
 *                                                       *
 *********************************************************
 Wed Apr  6 22:27:58 2022
 MAKE THE DIR         : OUT.ABACUS/
 dft_functional readin is: pbe
 dft_functional in pseudopot file is: PBE
In Pseudopot_upf::read_pseudo_header : input xc functional does not match that in pseudopot file
Please make sure this is what you need
 dft_functional readin is: pbe
 dft_functional in pseudopot file is: PBE
In Pseudopot_upf::read_pseudo_header : input xc functional does not match that in pseudopot file
Please make sure this is what you need
 DONE(0.0423574  SEC) : SETUP UNITCELL
 DONE(0.0444238  SEC) : INIT K-POINTS
 ---------------------------------------------------------
 Self-consistent calculations for electrons
 ---------------------------------------------------------
 SPIN    KPOINTS         PROCESSORS  NBASE       
 1       64              16          68          
 ---------------------------------------------------------
 Use Systematically Improvable Atomic bases
 ---------------------------------------------------------
 ELEMENT ORBITALS        NBASE       NATOM       XC          
 Al      4s4p1d-9au      21          2           PBE
 N       2s2p1d-8au      13          2           PBE
 ---------------------------------------------------------
 Initial plane wave basis and FFT box
 ---------------------------------------------------------
 SET NONLOCAL PSEUDOPOTENTIAL PROJECTORS
 SET NONLOCAL PSEUDOPOTENTIAL PROJECTORS
 DONE(13.4901    SEC) : INIT PLANEWAVE
 UNIFORM GRID DIM     : 30 * 30 * 48
 UNIFORM GRID DIM(BIG): 15 * 15 * 24
 DONE(13.4908    SEC) : INIT CHARGE
 DONE(13.491     SEC) : INIT POTENTIAL
 START POTENTIAL      : atomic
 -------------------------------------------
 SELF-CONSISTENT : 
 -------------------------------------------
 ITER   ETOT(eV)       EDIFF(eV)      DRHO2      TIME(s)    
 HOMO index is 0
 HOMO energy 0.471321
 LUMO index is -454134688
 LUMO energy 0.8903
 GE1    -4.310096e+03  0.000000e+00   1.514e-01  7.106e+00  
 HOMO index is 0
 HOMO energy 6.450e-01
 LUMO index is -454134688
 LUMO energy 1.030e+00
 GE2    -4.312494e+03  -2.397033e+00  5.625e-02  1.479e+01  
 HOMO index is 0
 HOMO energy 6.773e-01
 LUMO index is 18
 LUMO energy 1.036e+00
 GE3    -4.312594e+03  -1.006551e-01  3.414e-02  1.485e+01  
 HOMO index is 0
 HOMO energy 6.873e-01
 LUMO index is 18
 LUMO energy 1.043e+00
 GE4    -4.312607e+03  -1.296849e-02  3.334e-03  1.481e+01  
 HOMO index is 0
 HOMO energy 6.911e-01
 LUMO index is 18
 LUMO energy 1.045e+00
 GE5    -4.312604e+03  3.188719e-03   1.262e-03  1.476e+01  
 HOMO index is 0
 HOMO energy 6.904e-01
 LUMO index is 50
 LUMO energy 1.045e+00
 GE6    -4.312604e+03  6.286612e-05   4.359e-04  1.477e+01  
 HOMO index is 0
 HOMO energy 6.906e-01
 LUMO index is 18
 LUMO energy 1.045e+00
 GE7    -4.312604e+03  -4.195763e-04  1.953e-04  1.468e+01  
 HOMO index is 0
 HOMO energy 6.908e-01
 LUMO index is 18
 LUMO energy 1.045e+00
 GE8    -4.312604e+03  5.369809e-05   3.414e-05  1.470e+01  
 HOMO index is 0
 HOMO energy 6.908e-01
 LUMO index is 50
 LUMO energy 1.045e+00
 GE9    -4.312604e+03  -3.931635e-05  1.021e-05  1.462e+01  
 HOMO index is 0
 HOMO energy 6.908e-01
 LUMO index is 50
 LUMO energy 1.045e+00
 GE10   -4.312604e+03  4.929931e-06   3.691e-06  1.465e+01  
 HOMO index is 0
 HOMO energy 6.908e-01
 LUMO index is 18
 LUMO energy 1.045e+00
 GE11   -4.312604e+03  -2.310018e-06  9.292e-07  1.462e+01  
 HOMO index is 0
 HOMO energy 6.908e-01
 LUMO index is 50
 LUMO energy 1.045e+00
 GE12   -4.312604e+03  1.346712e-07   6.084e-07  1.463e+01  
 HOMO index is 0
 HOMO energy 6.908e-01
 LUMO index is 18
 LUMO energy 1.045e+00
 GE13   -4.312604e+03  -1.033069e-07  6.308e-08  1.465e+01  
E_delta_band = -9.94298582e-03 Ry = -1.35281262e-01 eV
E_delta_NN= -2.68038988e-03 Ry = -3.64685752e-02 eV

  |CLASS_NAME---------|NAME---------------|TIME(Sec)-----|CALLS----|AVG------|PER%-------
                       total               285.12         11        26        1e+02     %
   Run_lcao            lcao_line           285.1          1         2.9e+02   1e+02     %
   ORB_control         read_orb_first      0.81393        1         0.81      0.29      %
   LCAO_Orbitals       Read_Orbitals       0.81392        1         0.81      0.29      %
   NOrbital_Lm         extra_uniform       0.62924        59        0.011     0.22      %
   Mathzone_Add1       Uni_Deriv_Phi       0.58442        59        0.0099    0.2       %
   ORB_control         set_orb_tables      12.385         1         12        4.3       %
   ORB_gen_tables      gen_tables          12.385         1         12        4.3       %
   ORB_table_phi       init_Table          3.2102         1         3.2       1.1       %
   ORB_table_phi       cal_ST_Phi12_R      3.1693         406       0.0078    1.1       %
   ORB_table_beta      init_Table_Beta     0.94155        1         0.94      0.33      %
   ORB_table_beta      VNL_PhiBeta_R       0.93247        144       0.0065    0.33      %
   ORB_table_alpha     init_Table_Alpha    7.8239         1         7.8       2.7       %
   ORB_table_alpha     S_PhiAlpha_R        7.7561         900       0.0086    2.7       %
   Potential           init_pot            0.17883        2         0.089     0.063     %
   Potential           set_local_pot       0.16501        2         0.083     0.058     %
   FFT                 FFT3D               0.20251        232       0.00087   0.071     %
   LOOP_ions           opt_ions            271.53         1         2.7e+02   95        %
   LOOP_elec           solve_elec_stru     184.42         1         1.8e+02   65        %
   Grid_Driver         Find_atom           0.20783        6984      3e-05     0.073     %
   LOOP_elec           before_solver       0.4406         1         0.44      0.15      %
   LCAO_Hamilt         set_lcao_matrices   0.18945        1         0.19      0.066     %
   LCAO_gen_fixedH     build_Nonlocal_mu_new0.47805        2         0.24      0.17      %
   LCAO_Deepks         build_psialpha      0.24035        1         0.24      0.084     %
   ORB_gen_tables      snap_psialpha_half  0.2153         2529      8.5e-05   0.076     %
   LOOP_elec           solver              183.9          1         1.8e+02   64        %
   ELEC_scf            scf                 183.9          1         1.8e+02   64        %
   H_Ewald_pw          compute_ewald       0.21852        1         0.22      0.077     %
   ELEC_cbands_k       cal_bands           172.23         13        13        60        %
   LCAO_Deepks         cal_projected_DM_k  101.54         15        6.8       36        %
   LCAO_DESCRIPTOR     add_v_delta_k       52.564         13        4         18        %
   Gint_k              vlocal              9.5127         13        0.73      3.3       %
   Efficience          each_k              15.294         832       0.018     5.4       %
   Efficience          H_k                 10.934         832       0.013     3.8       %
   LCAO_Hamilt         calculate_Hk        10.931         832       0.013     3.8       %
   Gint_k              folding_vl_k        3.9759         832       0.0048    1.4       %
   Gint_k              Distri              3.0425         832       0.0037    1.1       %
   LCAO_nnr            folding_fixedH      6.949          832       0.0084    2.4       %
   Efficience          diago_k             4.3597         832       0.0052    1.5       %
   Diago_LCAO_Matrix   elpa_solve          4.0877         832       0.0049    1.4       %
   Diago_LCAO_Matrix   gath_eig_complex    0.16175        832       0.00019   0.057     %
   Local_Orbital_Cha   sum_bands           11.345         13        0.87      4         %
   LCAO_Charge         cal_dk_k            4.45           13        0.34      1.6       %
   Gint_k              cal_rho_k           6.1399         13        0.47      2.2       %
   LOOP_ions           force_stress        79.075         1         79        28        %
   Force_Stress_LCAO   getForceStress      79.075         1         79        28        %
   Force_LCAO_k        ftable_k            28.487         1         28        10        %
   Force_LCAO_k        allocate_k          0.49783        1         0.5       0.17      %
   Force_LCAO_k        cal_foverlap_k      0.65565        1         0.66      0.23      %
   Force_LCAO_k        set_EDM_k           1.2818         2         0.64      0.45      %
   Force_LCAO_k        cal_fvl_dphi_k      8.7073         1         8.7       3.1       %
   Gint_k              svl_k_RealSpace     8.544          1         8.5       3         %
   Gint_k              evaluate_vl_force   7.5544         450       0.017     2.6       %
   Gint_k              folding_force       0.66316        1         0.66      0.23      %
   Force_LCAO_k        cal_fvnl_dbeta_k_new1.1802         1         1.2       0.41      %
   LCAO_Deepks         cal_f_delta_hf_k_new8.7487         1         8.7       3.1       %
   LCAO_Deepks         cal_gdmx_k          50.49          1         50        18        %
 ----------------------------------------------------------------------------------------

 START  Time  : Wed Apr  6 22:27:58 2022
 FINISH Time  : Wed Apr  6 22:32:43 2022
 TOTAL  Time  : 2.8e+02
 SEE INFORMATION IN : OUT.ABACUS/
