 *********************************************************
 *                                                       *
 *                  WELCOME TO ABACUS                    *
 *                                                       *
 *            'Atomic-orbital Based Ab-initio            *
 *                  Computation at UStc'                 *
 *                                                       *
 *          Website: http://abacus.ustc.edu.cn/          *
 *                                                       *
 *********************************************************
 Wed Feb 23 14:37:57 2022
 MAKE THE DIR         : OUT.ABACUS/
 dft_functional readin is: pbe
 dft_functional in pseudopot file is: PBE
In Pseudopot_upf::read_pseudo_header : input xc functional does not match that in pseudopot file
Please make sure this is what you need
 dft_functional readin is: pbe
 dft_functional in pseudopot file is: PBE
In Pseudopot_upf::read_pseudo_header : input xc functional does not match that in pseudopot file
Please make sure this is what you need
 DONE(0.0418375  SEC) : SETUP UNITCELL
 DONE(0.0453223  SEC) : INIT K-POINTS
 ---------------------------------------------------------
 Self-consistent calculations for electrons
 ---------------------------------------------------------
 SPIN    KPOINTS         PROCESSORS  NBASE       
 1       125             16          94          
 ---------------------------------------------------------
 Use Systematically Improvable Atomic bases
 ---------------------------------------------------------
 ELEMENT ORBITALS        NBASE       NATOM       XC          
 Cu      4s2p2d1f-9au    27          3           PBE
 N       2s2p1d-8au      13          1           PBE
 ---------------------------------------------------------
 Initial plane wave basis and FFT box
 ---------------------------------------------------------
 SET NONLOCAL PSEUDOPOTENTIAL PROJECTORS
 SET NONLOCAL PSEUDOPOTENTIAL PROJECTORS
 DONE(14.4583    SEC) : INIT PLANEWAVE
 UNIFORM GRID DIM     : 36 * 36 * 36
 UNIFORM GRID DIM(BIG): 18 * 18 * 18
 DONE(14.459     SEC) : INIT CHARGE
 DONE(14.4592    SEC) : INIT POTENTIAL
 START POTENTIAL      : atomic
 -------------------------------------------
 SELF-CONSISTENT : 
 -------------------------------------------
 ITER   ETOT(eV)       EDIFF(eV)      DRHO2      TIME(s)    
 GE1    -1.515961e+04  0.000000e+00   5.186e-02  1.005e+01  
 GE2    -1.515772e+04  1.885037e+00   2.201e-02  2.504e+01  
 GE3    -1.515922e+04  -1.502651e+00  1.190e-02  2.488e+01  
 GE4    -1.515873e+04  4.968033e-01   4.771e-03  2.473e+01  
 GE5    -1.515875e+04  -2.314432e-02  2.010e-03  2.461e+01  
 GE6    -1.515875e+04  3.989846e-03   5.860e-04  2.460e+01  
 GE7    -1.515873e+04  1.772251e-02   5.176e-04  2.463e+01  
 GE8    -1.515876e+04  -3.580773e-02  1.278e-04  2.500e+01  
 GE9    -1.515875e+04  8.982117e-03   2.180e-04  2.450e+01  
 GE10   -1.515875e+04  6.264620e-03   4.827e-05  2.453e+01  
 GE11   -1.515875e+04  -5.046214e-03  1.495e-04  2.465e+01  
 GE12   -1.515875e+04  3.159074e-03   1.951e-05  2.463e+01  
 GE13   -1.515875e+04  -2.213336e-03  1.068e-04  2.451e+01  
 GE14   -1.515875e+04  1.971098e-03   4.713e-06  2.454e+01  
 GE15   -1.515875e+04  -1.517710e-03  8.000e-05  2.457e+01  
 GE16   -1.515875e+04  1.000493e-03   9.121e-06  2.458e+01  
 GE17   -1.515875e+04  -6.908963e-04  6.285e-05  2.443e+01  
 GE18   -1.515875e+04  5.481261e-04   1.411e-05  2.457e+01  
 GE19   -1.515875e+04  -4.812120e-04  5.132e-05  2.491e+01  
 GE20   -1.515875e+04  4.262263e-04   1.652e-05  2.471e+01  
 GE21   -1.515875e+04  -3.728217e-04  4.412e-05  2.466e+01  
 GE22   -1.515875e+04  2.994988e-04   2.192e-05  2.473e+01  
 GE23   -1.515875e+04  -2.298300e-04  3.820e-05  2.469e+01  
 GE24   -1.515875e+04  2.044543e-04   2.107e-05  2.463e+01  
 GE25   -1.515875e+04  -1.919088e-04  3.316e-05  2.484e+01  
 GE26   -1.515875e+04  1.440771e-04   2.330e-05  2.476e+01  
 GE27   -1.515875e+04  -1.032297e-04  2.873e-05  2.454e+01  
 GE28   -1.515875e+04  7.330175e-05   2.157e-05  2.435e+01  
 GE29   -1.515875e+04  -6.042223e-05  2.686e-05  2.448e+01  
 GE30   -1.515875e+04  6.333394e-05   1.852e-05  2.467e+01  
 GE31   -1.515875e+04  -5.716399e-05  2.153e-05  2.444e+01  
 GE32   -1.515875e+04  4.008163e-05   1.887e-05  2.443e+01  
 GE33   -1.515875e+04  1.978705e-06   1.428e-05  2.443e+01  
 GE34   -1.515875e+04  -3.634674e-05  1.449e-05  2.442e+01  
 GE35   -1.515875e+04  2.748974e-05   1.351e-05  2.440e+01  
 GE36   -1.515875e+04  -2.302698e-05  1.449e-05  2.454e+01  
 GE37   -1.515875e+04  1.273702e-05   1.507e-05  2.451e+01  
 GE38   -1.515875e+04  1.651361e-06   1.408e-05  2.504e+01  
 GE39   -1.515875e+04  3.545247e-05   7.614e-06  2.449e+01  
 GE40   -1.515875e+04  -4.528261e-05  6.824e-06  2.441e+01  
 GE41   -1.515875e+04  1.479439e-05   6.925e-06  2.436e+01  
 GE42   -1.515875e+04  -1.296733e-05  6.684e-06  2.442e+01  
 GE43   -1.515875e+04  1.346074e-05   6.612e-06  2.445e+01  
 GE44   -1.515875e+04  -1.080132e-05  6.231e-06  2.454e+01  
 GE45   -1.515875e+04  2.420282e-06   6.623e-06  2.457e+01  
 GE46   -1.515875e+04  2.720924e-05   5.824e-06  2.445e+01  
 GE47   -1.515875e+04  -4.483744e-05  5.918e-06  2.456e+01  
 GE48   -1.515875e+04  3.053971e-05   5.205e-06  2.458e+01  
 GE49   -1.515875e+04  -1.531583e-05  6.181e-06  2.446e+01  
 GE50   -1.515875e+04  1.930383e-06   6.075e-06  2.458e+01  
 GE51   -1.515875e+04  1.245672e-06   5.977e-06  2.442e+01  
 GE52   -1.515875e+04  -1.234911e-05  6.044e-06  2.442e+01  
 GE53   -1.515875e+04  -5.200493e-06  6.933e-06  2.447e+01  
 GE54   -1.515875e+04  1.730021e-05   7.744e-06  2.440e+01  
 GE55   -1.515875e+04  -9.160730e-06  8.384e-06  2.444e+01  
 GE56   -1.515875e+04  1.741107e-05   6.769e-06  2.449e+01  
 GE57   -1.515875e+04  -1.122173e-05  4.746e-06  2.454e+01  
 GE58   -1.515875e+04  1.277962e-05   1.860e-06  2.467e+01  
 GE59   -1.515875e+04  -9.416677e-06  9.389e-07  2.454e+01  
 GE60   -1.515875e+04  3.056108e-06   2.705e-07  2.441e+01  
E_delta_band = 2.93829857e-02 Ry = 3.99776030e-01 eV
E_delta_NN= 9.94077481e-01 Ry = 1.35251180e+01 eV

  |CLASS_NAME---------|NAME---------------|TIME(Sec)-----|CALLS----|AVG------|PER%-------
                       total               1614.7         11        1.5e+02   1e+02     %
   Run_lcao            lcao_line           1614.6         1         1.6e+03   1e+02     %
   ORB_control         read_orb_first      0.75153        1         0.75      0.047     %
   LCAO_Orbitals       Read_Orbitals       0.75153        1         0.75      0.047     %
   NOrbital_Lm         extra_uniform       0.57763        59        0.0098    0.036     %
   Mathzone_Add1       Uni_Deriv_Phi       0.54023        59        0.0092    0.033     %
   ORB_control         set_orb_tables      13.622         1         14        0.84      %
   ORB_gen_tables      gen_tables          13.622         1         14        0.84      %
   ORB_table_phi       init_Table          3.6119         1         3.6       0.22      %
   ORB_table_phi       cal_ST_Phi12_R      3.569          428       0.0083    0.22      %
   ORB_table_beta      init_Table_Beta     1.3443         1         1.3       0.083     %
   ORB_table_beta      VNL_PhiBeta_R       1.3327         196       0.0068    0.083     %
   ORB_table_alpha     init_Table_Alpha    8.3936         1         8.4       0.52      %
   ORB_table_alpha     S_PhiAlpha_R        8.327          930       0.009     0.52      %
   FFT                 FFT3D               0.153          817       0.00019   0.0095    %
   Potential           v_of_rho            0.24802        62        0.004     0.015     %
   H_XC_pw             v_xc                0.22915        63        0.0036    0.014     %
   LOOP_ions           opt_ions            1600.1         1         1.6e+03   99        %
   LOOP_elec           solve_elec_stru     1461           1         1.5e+03   90        %
   Grid_Driver         Find_atom           1.3016         61080     2.1e-05   0.081     %
   LOOP_elec           before_solver       0.54618        1         0.55      0.034     %
   LCAO_Hamilt         set_lcao_matrices   0.23255        1         0.23      0.014     %
   LCAO_gen_fixedH     build_Nonlocal_mu_new0.56947        2         0.28      0.035     %
   LCAO_Deepks         build_psialpha      0.29944        1         0.3       0.019     %
   ORB_gen_tables      snap_psialpha_half  0.27751        2970      9.3e-05   0.017     %
   LOOP_elec           solver              1460.4         1         1.5e+03   90        %
   ELEC_scf            scf                 1460.4         1         1.5e+03   90        %
   H_Ewald_pw          compute_ewald       0.27636        1         0.28      0.017     %
   ELEC_cbands_k       cal_bands           1334.8         60        22        83        %
   LCAO_Deepks         cal_projected_DM_k  604.47         62        9.7       37        %
   LCAO_DESCRIPTOR     add_v_delta_k       290.1          60        4.8       18        %
   Gint_k              vlocal              64.614         60        1.1       4         %
   Efficience          each_k              100.34         7500      0.013     6.2       %
   Efficience          H_k                 49.806         7500      0.0066    3.1       %
   LCAO_Hamilt         calculate_Hk        49.788         7500      0.0066    3.1       %
   Gint_k              folding_vl_k        18.016         7500      0.0024    1.1       %
   Gint_k              Distri              6.7288         7500      0.0009    0.42      %
   LCAO_nnr            folding_fixedH      31.694         7500      0.0042    2         %
   Efficience          diago_k             50.525         7500      0.0067    3.1       %
   Diago_LCAO_Matrix   elpa_solve          48.242         7500      0.0064    3         %
   Diago_LCAO_Matrix   gath_eig_complex    1.6477         7500      0.00022   0.1       %
   Local_Orbital_Cha   sum_bands           123.1          60        2.1       7.6       %
   LCAO_Charge         cal_dk_k            82.65          60        1.4       5.1       %
   Gint_k              cal_rho_k           36.119         60        0.6       2.2       %
   LOOP_ions           force_stress        124.26         1         1.2e+02   7.7       %
   Force_Stress_LCAO   getForceStress      124.26         1         1.2e+02   7.7       %
   Force_LCAO_k        ftable_k            52.5           1         52        3.3       %
   Force_LCAO_k        allocate_k          0.89981        1         0.9       0.056     %
   Force_LCAO_k        cal_foverlap_k      2.3949         1         2.4       0.15      %
   Force_LCAO_k        set_EDM_k           4.6742         2         2.3       0.29      %
   Force_LCAO_k        cal_fvl_dphi_k      14.397         1         14        0.89      %
   Gint_k              svl_k_RealSpace     14.373         1         14        0.89      %
   Gint_k              evaluate_vl_force   13.964         648       0.022     0.86      %
   Force_LCAO_k        cal_fvnl_dbeta_k_new1.0787         1         1.1       0.067     %
   LCAO_Deepks         cal_f_delta_hf_k_new16.511         1         17        1         %
   LCAO_Deepks         cal_gdmx_k          71.676         1         72        4.4       %
 ----------------------------------------------------------------------------------------

 START  Time  : Wed Feb 23 14:37:57 2022
 FINISH Time  : Wed Feb 23 15:04:52 2022
 TOTAL  Time  : 1.6e+03
 SEE INFORMATION IN : OUT.ABACUS/
