                                                                                     
                             WELCOME TO ABACUS                                       
                                                                                     
               'Atomic-orbital Based Ab-initio Computation at UStc'                  
                                                                                     
                     Website: http://abacus.ustc.edu.cn/                             
                                                                                     
    Version: Parallel, in development
    Processor Number is 16
    Start Time is Wed Apr  6 22:28:05 2022
                                                                                     
 ------------------------------------------------------------------------------------

 READING GENERAL INFORMATION
                           global_out_dir = OUT.ABACUS/
                           global_in_card = INPUT
                               pseudo_dir = 
                              orbital_dir = 
                              pseudo_type = auto
                                    DRANK = 1
                                    DSIZE = 16
                                   DCOLOR = 1
                                    GRANK = 1
                                    GSIZE = 1




 >>>>>>>>>>>>>>>>>>>>>>>>>>>>>>>>>>>>>>>>>>>>>>>>>>>>>>>>>>>>>>>>>>>>>>
 |                                                                    |
 | Reading atom information in unitcell:                              |
 | From the input file and the structure file we know the number of   |
 | different elments in this unitcell, then we list the detail        |
 | information for each element, especially the zeta and polar atomic |
 | orbital number for each element. The total atom number is counted. |
 | We calculate the nearest atom distance for each atom and show the  |
 | Cartesian and Direct coordinates for each atom. We list the file   |
 | address for atomic orbitals. The volume and the lattice vectors    |
 | in real and reciprocal space is also shown.                        |
 |                                                                    |
 <<<<<<<<<<<<<<<<<<<<<<<<<<<<<<<<<<<<<<<<<<<<<<<<<<<<<<<<<<<<<<<<<<<<<<




 READING UNITCELL INFORMATION
                                    ntype = 2
                 atom label for species 1 = Cu
                 atom label for species 2 = Br
                  lattice constant (Bohr) = 1.88973
              lattice constant (Angstrom) = 1

 READING ATOM TYPE 1
                               atom label = Cu
                      L=0, number of zeta = 4
                      L=1, number of zeta = 2
                      L=2, number of zeta = 2
                      L=3, number of zeta = 1
             number of atom for this type = 4
                      start magnetization = FALSE
                      start magnetization = FALSE
                      start magnetization = FALSE
                      start magnetization = FALSE

 READING ATOM TYPE 2
                               atom label = Br
                      L=0, number of zeta = 2
                      L=1, number of zeta = 2
                      L=2, number of zeta = 1
             number of atom for this type = 4
                      start magnetization = FALSE
                      start magnetization = FALSE
                      start magnetization = FALSE
                      start magnetization = FALSE

                        TOTAL ATOM NUMBER = 8

 CARTESIAN COORDINATES ( UNIT = 1.88973 Bohr ).
         atom                   x                   y                   z                 mag                  vx                  vy                  vz
     tauc_Cu1         1.424140306         1.417898022         4.285383676                   0                   0                   0                   0
     tauc_Cu2         1.359421946         4.359295562         1.483478194                   0                   0                   0                   0
     tauc_Cu3         4.270849036         1.346512904         1.410796369                   0                   0                   0                   0
     tauc_Cu4         4.318369789         4.274334094         4.168313087                   0                   0                   0                   0
     tauc_Br1        5.6634414832        5.6509781682       5.58686718021                   0                   0                   0                   0
     tauc_Br2   0.000953546002445       2.71873014501       2.82303259701                   0                   0                   0                   0
     tauc_Br3         2.827146868     0.0692863169958         2.951078861                   0                   0                   0                   0
     tauc_Br4         2.953580673       2.78133786601     0.0569780349958                   0                   0                   0                   0


 READING ORBITAL FILE NAMES FOR LCAO
 orbital file: /root/Orb_SG15_DZP_E60_Standard_v1.0/Cu_gga_9au_60Ry_4s2p2d1f.orb
 orbital file: /root/Orb_SG15_DZP_E60_Standard_v1.0/Br_gga_8au_60Ry_2s2p1d.orb

                          Volume (Bohr^3) = 1249.09725838
                             Volume (A^3) = 185.096895523

 Lattice vectors: (Cartesian coordinate: in unit of a_0)
        +5.6990160942                  +0                  +0
                   +0       +5.6990160942                  +0
                   +0                  +0       +5.6990160942
 Reciprocal vectors: (Cartesian coordinate: in unit of 2 pi/a_0)
      +0.175468885062                  +0                  +0
                   +0     +0.175468885062                  +0
                   +0                  -0     +0.175468885062




 >>>>>>>>>>>>>>>>>>>>>>>>>>>>>>>>>>>>>>>>>>>>>>>>>>>>>>>>>>>>>>>>>>>>>>
 |                                                                    |
 | Reading pseudopotentials files:                                    |
 | The pseudopotential file is in UPF format. The 'NC' indicates that |
 | the type of pseudopotential is 'norm conserving'. Functional of    |
 | exchange and correlation is decided by 4 given parameters in UPF   |
 | file.  We also read in the 'core correction' if there exists.      |
 | Also we can read the valence electrons number and the maximal      |
 | angular momentum used in this pseudopotential. We also read in the |
 | trail wave function, trail atomic density and local-pseudopotential|
 | on logrithmic grid. The non-local pseudopotential projector is also|
 | read in if there is any.                                           |
 |                                                                    |
 <<<<<<<<<<<<<<<<<<<<<<<<<<<<<<<<<<<<<<<<<<<<<<<<<<<<<<<<<<<<<<<<<<<<<<




                PAO radial cut off (Bohr) = 15

 Read in pseudopotential file is /root/SG15_ONCV_v1.0_upf/Cu_ONCV_PBE-1.0.upf
                     pseudopotential type = NC
                            functional Ex = PBE
                            functional Ec = 
                          functional GCEx = 
                          functional GCEc = 
                 nonlocal core correction = 0
                        valence electrons = 19
                                     lmax = 2
                           number of zeta = 0
                     number of projectors = 6
                           L of projector = 0
                           L of projector = 0
                           L of projector = 1
                           L of projector = 1
                           L of projector = 2
                           L of projector = 2

 XC functional updated to : 
                            functional Ex = PBE
                            functional Ec = 
                          functional GCEx = 
                          functional GCEc = 
                PAO radial cut off (Bohr) = 15

 Read in pseudopotential file is /root/SG15_ONCV_v1.0_upf/Br_ONCV_PBE-1.0.upf
                     pseudopotential type = NC
                            functional Ex = PBE
                            functional Ec = 
                          functional GCEx = 
                          functional GCEc = 
                 nonlocal core correction = 0
                        valence electrons = 7
                                     lmax = 2
                           number of zeta = 0
                     number of projectors = 6
                           L of projector = 0
                           L of projector = 0
                           L of projector = 1
                           L of projector = 1
                           L of projector = 2
                           L of projector = 2

 XC functional updated to : 
                            functional Ex = PBE
                            functional Ec = 
                          functional GCEx = 
                          functional GCEc = 
     initial pseudo atomic orbital number = 0
                                   NLOCAL = 160

 SETUP THE ELECTRONS NUMBER
            electron number of element Cu = 19
      total electron number of element Cu = 76
            electron number of element Br = 7
      total electron number of element Br = 28
                           occupied bands = 52
                                   NLOCAL = 160
                                   NBANDS = 62
                                   NBANDS = 62
 DONE : SETUP UNITCELL Time : 0.0427948959042 (SEC)





 >>>>>>>>>>>>>>>>>>>>>>>>>>>>>>>>>>>>>>>>>>>>>>>>>>>>>>>>>>>>>>>>>>>>>>
 |                                                                    |
 | Setup K-points                                                     |
 | We setup the k-points according to input parameters.               |
 | The reduced k-points are set according to symmetry operations.     |
 | We treat the spin as another set of k-points.                      |
 |                                                                    |
 <<<<<<<<<<<<<<<<<<<<<<<<<<<<<<<<<<<<<<<<<<<<<<<<<<<<<<<<<<<<<<<<<<<<<<





 SETUP K-POINTS
                                    nspin = 1
                   Input type of k points = Monkhorst-Pack(Gamma)
                                   nkstot = 64

  KPOINTS            DIRECT_X            DIRECT_Y            DIRECT_Z              WEIGHT
        1                   0                   0                   0            0.015625
        2                0.25                   0                   0            0.015625
        3                 0.5                   0                   0            0.015625
        4                0.75                   0                   0            0.015625
        5                   0                0.25                   0            0.015625
        6                0.25                0.25                   0            0.015625
        7                 0.5                0.25                   0            0.015625
        8                0.75                0.25                   0            0.015625
        9                   0                 0.5                   0            0.015625
       10                0.25                 0.5                   0            0.015625
       11                 0.5                 0.5                   0            0.015625
       12                0.75                 0.5                   0            0.015625
       13                   0                0.75                   0            0.015625
       14                0.25                0.75                   0            0.015625
       15                 0.5                0.75                   0            0.015625
       16                0.75                0.75                   0            0.015625
       17                   0                   0                0.25            0.015625
       18                0.25                   0                0.25            0.015625
       19                 0.5                   0                0.25            0.015625
       20                0.75                   0                0.25            0.015625
       21                   0                0.25                0.25            0.015625
       22                0.25                0.25                0.25            0.015625
       23                 0.5                0.25                0.25            0.015625
       24                0.75                0.25                0.25            0.015625
       25                   0                 0.5                0.25            0.015625
       26                0.25                 0.5                0.25            0.015625
       27                 0.5                 0.5                0.25            0.015625
       28                0.75                 0.5                0.25            0.015625
       29                   0                0.75                0.25            0.015625
       30                0.25                0.75                0.25            0.015625
       31                 0.5                0.75                0.25            0.015625
       32                0.75                0.75                0.25            0.015625
       33                   0                   0                 0.5            0.015625
       34                0.25                   0                 0.5            0.015625
       35                 0.5                   0                 0.5            0.015625
       36                0.75                   0                 0.5            0.015625
       37                   0                0.25                 0.5            0.015625
       38                0.25                0.25                 0.5            0.015625
       39                 0.5                0.25                 0.5            0.015625
       40                0.75                0.25                 0.5            0.015625
       41                   0                 0.5                 0.5            0.015625
       42                0.25                 0.5                 0.5            0.015625
       43                 0.5                 0.5                 0.5            0.015625
       44                0.75                 0.5                 0.5            0.015625
       45                   0                0.75                 0.5            0.015625
       46                0.25                0.75                 0.5            0.015625
       47                 0.5                0.75                 0.5            0.015625
       48                0.75                0.75                 0.5            0.015625
       49                   0                   0                0.75            0.015625
       50                0.25                   0                0.75            0.015625
       51                 0.5                   0                0.75            0.015625
       52                0.75                   0                0.75            0.015625
       53                   0                0.25                0.75            0.015625
       54                0.25                0.25                0.75            0.015625
       55                 0.5                0.25                0.75            0.015625
       56                0.75                0.25                0.75            0.015625
       57                   0                 0.5                0.75            0.015625
       58                0.25                 0.5                0.75            0.015625
       59                 0.5                 0.5                0.75            0.015625
       60                0.75                 0.5                0.75            0.015625
       61                   0                0.75                0.75            0.015625
       62                0.25                0.75                0.75            0.015625
       63                 0.5                0.75                0.75            0.015625
       64                0.75                0.75                0.75            0.015625

           k-point number in this process = 64
       minimum distributed K point number = 64

  KPOINTS         CARTESIAN_X         CARTESIAN_Y         CARTESIAN_Z              WEIGHT
        1                   0                   0                   0             0.03125
        2     0.0438672212655                   0                   0             0.03125
        3      0.087734442531                   0                   0             0.03125
        4      0.131601663797                   0                   0             0.03125
        5                   0     0.0438672212655                   0             0.03125
        6     0.0438672212655     0.0438672212655                   0             0.03125
        7      0.087734442531     0.0438672212655                   0             0.03125
        8      0.131601663797     0.0438672212655                   0             0.03125
        9                   0      0.087734442531                   0             0.03125
       10     0.0438672212655      0.087734442531                   0             0.03125
       11      0.087734442531      0.087734442531                   0             0.03125
       12      0.131601663797      0.087734442531                   0             0.03125
       13                   0      0.131601663797                   0             0.03125
       14     0.0438672212655      0.131601663797                   0             0.03125
       15      0.087734442531      0.131601663797                   0             0.03125
       16      0.131601663797      0.131601663797                   0             0.03125
       17                   0                   0     0.0438672212655             0.03125
       18     0.0438672212655                   0     0.0438672212655             0.03125
       19      0.087734442531                   0     0.0438672212655             0.03125
       20      0.131601663797                   0     0.0438672212655             0.03125
       21                   0     0.0438672212655     0.0438672212655             0.03125
       22     0.0438672212655     0.0438672212655     0.0438672212655             0.03125
       23      0.087734442531     0.0438672212655     0.0438672212655             0.03125
       24      0.131601663797     0.0438672212655     0.0438672212655             0.03125
       25                   0      0.087734442531     0.0438672212655             0.03125
       26     0.0438672212655      0.087734442531     0.0438672212655             0.03125
       27      0.087734442531      0.087734442531     0.0438672212655             0.03125
       28      0.131601663797      0.087734442531     0.0438672212655             0.03125
       29                   0      0.131601663797     0.0438672212655             0.03125
       30     0.0438672212655      0.131601663797     0.0438672212655             0.03125
       31      0.087734442531      0.131601663797     0.0438672212655             0.03125
       32      0.131601663797      0.131601663797     0.0438672212655             0.03125
       33                   0                   0      0.087734442531             0.03125
       34     0.0438672212655                   0      0.087734442531             0.03125
       35      0.087734442531                   0      0.087734442531             0.03125
       36      0.131601663797                   0      0.087734442531             0.03125
       37                   0     0.0438672212655      0.087734442531             0.03125
       38     0.0438672212655     0.0438672212655      0.087734442531             0.03125
       39      0.087734442531     0.0438672212655      0.087734442531             0.03125
       40      0.131601663797     0.0438672212655      0.087734442531             0.03125
       41                   0      0.087734442531      0.087734442531             0.03125
       42     0.0438672212655      0.087734442531      0.087734442531             0.03125
       43      0.087734442531      0.087734442531      0.087734442531             0.03125
       44      0.131601663797      0.087734442531      0.087734442531             0.03125
       45                   0      0.131601663797      0.087734442531             0.03125
       46     0.0438672212655      0.131601663797      0.087734442531             0.03125
       47      0.087734442531      0.131601663797      0.087734442531             0.03125
       48      0.131601663797      0.131601663797      0.087734442531             0.03125
       49                   0                   0      0.131601663797             0.03125
       50     0.0438672212655                   0      0.131601663797             0.03125
       51      0.087734442531                   0      0.131601663797             0.03125
       52      0.131601663797                   0      0.131601663797             0.03125
       53                   0     0.0438672212655      0.131601663797             0.03125
       54     0.0438672212655     0.0438672212655      0.131601663797             0.03125
       55      0.087734442531     0.0438672212655      0.131601663797             0.03125
       56      0.131601663797     0.0438672212655      0.131601663797             0.03125
       57                   0      0.087734442531      0.131601663797             0.03125
       58     0.0438672212655      0.087734442531      0.131601663797             0.03125
       59      0.087734442531      0.087734442531      0.131601663797             0.03125
       60      0.131601663797      0.087734442531      0.131601663797             0.03125
       61                   0      0.131601663797      0.131601663797             0.03125
       62     0.0438672212655      0.131601663797      0.131601663797             0.03125
       63      0.087734442531      0.131601663797      0.131601663797             0.03125
       64      0.131601663797      0.131601663797      0.131601663797             0.03125

  KPOINTS            DIRECT_X            DIRECT_Y            DIRECT_Z              WEIGHT
        1                   0                   0                   0             0.03125
        2                0.25                   0                   0             0.03125
        3                 0.5                   0                   0             0.03125
        4                0.75                   0                   0             0.03125
        5                   0                0.25                   0             0.03125
        6                0.25                0.25                   0             0.03125
        7                 0.5                0.25                   0             0.03125
        8                0.75                0.25                   0             0.03125
        9                   0                 0.5                   0             0.03125
       10                0.25                 0.5                   0             0.03125
       11                 0.5                 0.5                   0             0.03125
       12                0.75                 0.5                   0             0.03125
       13                   0                0.75                   0             0.03125
       14                0.25                0.75                   0             0.03125
       15                 0.5                0.75                   0             0.03125
       16                0.75                0.75                   0             0.03125
       17                   0                   0                0.25             0.03125
       18                0.25                   0                0.25             0.03125
       19                 0.5                   0                0.25             0.03125
       20                0.75                   0                0.25             0.03125
       21                   0                0.25                0.25             0.03125
       22                0.25                0.25                0.25             0.03125
       23                 0.5                0.25                0.25             0.03125
       24                0.75                0.25                0.25             0.03125
       25                   0                 0.5                0.25             0.03125
       26                0.25                 0.5                0.25             0.03125
       27                 0.5                 0.5                0.25             0.03125
       28                0.75                 0.5                0.25             0.03125
       29                   0                0.75                0.25             0.03125
       30                0.25                0.75                0.25             0.03125
       31                 0.5                0.75                0.25             0.03125
       32                0.75                0.75                0.25             0.03125
       33                   0                   0                 0.5             0.03125
       34                0.25                   0                 0.5             0.03125
       35                 0.5                   0                 0.5             0.03125
       36                0.75                   0                 0.5             0.03125
       37                   0                0.25                 0.5             0.03125
       38                0.25                0.25                 0.5             0.03125
       39                 0.5                0.25                 0.5             0.03125
       40                0.75                0.25                 0.5             0.03125
       41                   0                 0.5                 0.5             0.03125
       42                0.25                 0.5                 0.5             0.03125
       43                 0.5                 0.5                 0.5             0.03125
       44                0.75                 0.5                 0.5             0.03125
       45                   0                0.75                 0.5             0.03125
       46                0.25                0.75                 0.5             0.03125
       47                 0.5                0.75                 0.5             0.03125
       48                0.75                0.75                 0.5             0.03125
       49                   0                   0                0.75             0.03125
       50                0.25                   0                0.75             0.03125
       51                 0.5                   0                0.75             0.03125
       52                0.75                   0                0.75             0.03125
       53                   0                0.25                0.75             0.03125
       54                0.25                0.25                0.75             0.03125
       55                 0.5                0.25                0.75             0.03125
       56                0.75                0.25                0.75             0.03125
       57                   0                 0.5                0.75             0.03125
       58                0.25                 0.5                0.75             0.03125
       59                 0.5                 0.5                0.75             0.03125
       60                0.75                 0.5                0.75             0.03125
       61                   0                0.75                0.75             0.03125
       62                0.25                0.75                0.75             0.03125
       63                 0.5                0.75                0.75             0.03125
       64                0.75                0.75                0.75             0.03125
 DONE : INIT K-POINTS Time : 0.0445321092316 (SEC)





 >>>>>>>>>>>>>>>>>>>>>>>>>>>>>>>>>>>>>>>>>>>>>>>>>>>>>>>>>>>>>>>>>>>>>>
 |                                                                    |
 | Setup numerical orbitals:                                          |
 | This part setup: numerical atomic orbitals, non-local projectors   |
 | and neutral potential (1D). The atomic orbitals information        |
 | including the radius, angular momentum and zeta number.            |
 | The neutral potential is the sum of local part of pseudopotential  |
 | and potential given by atomic charge, they will cancel out beyond  |
 | a certain radius cutoff, because the Z/r character.                |
 |                                                                    |
 <<<<<<<<<<<<<<<<<<<<<<<<<<<<<<<<<<<<<<<<<<<<<<<<<<<<<<<<<<<<<<<<<<<<<<





 SETUP ONE DIMENSIONAL ORBITALS/POTENTIAL
                        delta k  (1/Bohr) = 0.01
                        delta r    (Bohr) = 0.01
                        dr_uniform (Bohr) = 0.001
                        rmax       (Bohr) = 30
                                    kmesh = 779
      ORBITAL  L  N      nr      dr    RCUT  CHECK_UNIT    NEW_UNIT
            1  0  0     901    0.01       9           1           1
            2  0  1     901    0.01       9           1           1
            3  0  2     901    0.01       9           1           1
            4  0  3     901    0.01       9           1           1
            5  1  0     901    0.01       9           1           1
            6  1  1     901    0.01       9           1           1
            7  2  0     901    0.01       9           1           1
            8  2  1     901    0.01       9           1           1
            9  3  0     901    0.01       9           1           1
      ORBITAL  L  N      nr      dr    RCUT  CHECK_UNIT    NEW_UNIT
            1  0  0     801    0.01       8           1           1
            2  0  1     801    0.01       8           1           1
            3  1  0     801    0.01       8           1           1
            4  1  1     801    0.01       8           1           1
            5  2  0     801    0.01       8           1           1
   DESCRIPTOR  L  N      nr      dr    RCUT  CHECK_UNIT    NEW_UNIT
            1  0  0     505    0.01    5.04        6.33           1
            2  0  1     505    0.01    5.04        1.58           1
            3  0  2     505    0.01    5.04       0.704           1
            4  0  3     505    0.01    5.04       0.396           1
            5  0  4     505    0.01    5.04       0.253           1
            6  0  5     505    0.01    5.04       0.176           1
            7  0  6     505    0.01    5.04       0.129           1
            8  0  7     505    0.01    5.04       0.099           1
            9  0  8     505    0.01    5.04      0.0782           1
           10  0  9     505    0.01    5.04      0.0633           1
           11  0 10     505    0.01    5.04      0.0524           1
           12  0 11     505    0.01    5.04       0.044           1
           13  0 12     505    0.01    5.04      0.0375           1
           14  0 13     505    0.01    5.04      0.0323           1
           15  0 14     505    0.01    5.04      0.0282           1
           16  1  0     505    0.01    5.04        2.95           1
           17  1  1     505    0.01    5.04        1.03           1
           18  1  2     505    0.01    5.04       0.521           1
           19  1  3     505    0.01    5.04       0.314           1
           20  1  4     505    0.01    5.04        0.21           1
           21  1  5     505    0.01    5.04        0.15           1
           22  1  6     505    0.01    5.04       0.113           1
           23  1  7     505    0.01    5.04      0.0878           1
           24  1  8     505    0.01    5.04      0.0703           1
           25  1  9     505    0.01    5.04      0.0575           1
           26  1 10     505    0.01    5.04      0.0479           1
           27  1 11     505    0.01    5.04      0.0406           1
           28  1 12     505    0.01    5.04      0.0348           1
           29  1 13     505    0.01    5.04      0.0302           1
           30  1 14     505    0.01    5.04      0.0264           1
           31  2  0     505    0.01    5.04        1.71           1
           32  2  1     505    0.01    5.04       0.728           1
           33  2  2     505    0.01    5.04       0.403           1
           34  2  3     505    0.01    5.04       0.256           1
           35  2  4     505    0.01    5.04       0.177           1
           36  2  5     505    0.01    5.04        0.13           1
           37  2  6     505    0.01    5.04      0.0994           1
           38  2  7     505    0.01    5.04      0.0785           1
           39  2  8     505    0.01    5.04      0.0635           1
           40  2  9     505    0.01    5.04      0.0525           1
           41  2 10     505    0.01    5.04      0.0441           1
           42  2 11     505    0.01    5.04      0.0376           1
           43  2 12     505    0.01    5.04      0.0324           1
           44  2 13     505    0.01    5.04      0.0282           1
           45  2 14     505    0.01    5.04      0.0248           1
 max number of nonlocal projetors among all species is 6

 SETUP THE TWO-CENTER INTEGRATION TABLES

 SETUP THE DIVISION OF H/S MATRIX
 divide the H&S matrix using 2D block algorithms.
                                     nb2d = 1
                  trace_loc_row dimension = 160
                  trace_loc_col dimension = 160
                                     nloc = 1600
 Initialize the descriptor index for DeePKS (lcao line)
 lmax of descriptor = 2
 nmax of descriptor= 15
 total basis (all atoms) for descriptor= 
 Type 1 number_of_atoms 4
 Type 2 number_of_atoms 4
 descriptors_per_atom 135
 total_descriptors 1080




 >>>>>>>>>>>>>>>>>>>>>>>>>>>>>>>>>>>>>>>>>>>>>>>>>>>>>>>>>>>>>>>>>>>>>>
 |                                                                    |
 | Setup plane waves:                                                 |
 | Use the energy cutoff and the lattice vectors to generate the      |
 | dimensions of FFT grid. The number of FFT grid on each processor   |
 | is 'nrxx'. The number of plane wave basis in reciprocal space is   |
 | different for charege/potential and wave functions. We also set    |
 | the 'sticks' for the parallel of FFT.                              |
 |                                                                    |
 <<<<<<<<<<<<<<<<<<<<<<<<<<<<<<<<<<<<<<<<<<<<<<<<<<<<<<<<<<<<<<<<<<<<<<





 SETUP THE PLANE WAVE BASIS
     energy cutoff for wavefunc (unit:Ry) = 60
            [fft grid for wave functions] = 54, 54, 54
          [fft grid for charge/potential] = 54, 54, 54
                      [fft grid division] = 2, 2, 2
      [big fft grid for charge/potential] = 27, 27, 27
                                     nbxx = 1458
                                     nrxx = 11664

 SETUP PLANE WAVES FOR CHARGE/POTENTIAL
                    number of plane waves = 78517
                         number of sticks = 2217

 SETUP PLANE WAVES FOR WAVE FUNCTIONS
                    number of plane waves = 13037
                         number of sticks = 673

 PARALLEL PW FOR CHARGE/POTENTIAL
     PROC   COLUMNS(POT)             PW
        1            152           5138
        2            152           5138
        3            152           5138
        4            153           5141
        5            153           5141
        6            153           5141
        7            153           5141
        8            153           5141
        9            152           5136
       10            152           5136
       11            152           5136
       12            108           4398
       13            108           4398
       14            108           4398
       15            108           4398
       16            108           4398
 --------------- sum -------------------
       16           2217          78517

 PARALLEL PW FOR WAVE FUNCTIONS
     PROC     COLUMNS(W)             PW
        1             43            817
        2             41            813
        3             42            816
        4             43            817
        5             43            815
        6             41            811
        7             42            816
        8             41            813
        9             44            818
       10             41            815
       11             41            819
       12             43            813
       13             43            817
       14             41            813
       15             43            813
       16             41            811
 --------------- sum -------------------
       16            673          13037

 SETUP COORDINATES OF PLANE WAVES
              number of total plane waves = 78517

 SETUP COORDINATES OF PLANE WAVES
                            number of |g| = 549
                                  max |g| = 21.7
                                  min |g| = 0
 DONE : INIT PLANEWAVE Time : 14.9 (SEC)

 DONE : INIT CHARGE Time : 15 (SEC)

 DONE : INIT POTENTIAL Time : 15 (SEC)

                                start_pot = atomic

 -------------------------------------------
 SELF-CONSISTENT
 -------------------------------------------




 >>>>>>>>>>>>>>>>>>>>>>>>>>>>>>>>>>>>>>>>>>>>>>>>>>>>>>>>>>>>>>>>>>>>>>
 |                                                                    |
 | Search adjacent atoms:                                             |
 | Set the adjacent atoms for each atom and set the periodic boundary |
 | condition for the atoms on real space FFT grid. For k-dependent    |
 | algorithm, we also need to set the sparse H and S matrix element   |
 | for each atom.                                                     |
 |                                                                    |
 <<<<<<<<<<<<<<<<<<<<<<<<<<<<<<<<<<<<<<<<<<<<<<<<<<<<<<<<<<<<<<<<<<<<<<





 SETUP SEARCHING RADIUS FOR PROGRAM TO SEARCH ADJACENT ATOMS
                  longest orb rcut (Bohr) = 9
   longest nonlocal projector rcut (Bohr) = 2.54
              searching radius is (Bohr)) = 23.1
         searching radius unit is (Bohr)) = 1.89

 SETUP EXTENDED REAL SPACE GRID FOR GRID INTEGRATION
                        [real space grid] = 54, 54, 54
               [big cell numbers in grid] = 27, 27, 27
           [meshcell numbers in big cell] = 2, 2, 2
                      [extended fft grid] = 23, 23, 23
              [dimension of extened grid] = 74, 74, 74
                            UnitCellTotal = 27
              Atom number in sub-FFT-grid = 8
    Local orbitals number in sub-FFT-grid = 160
                                      nnr = 35552
                                     nnrg = 458488

 SETUP ARRAY FOR EXTRA WAVE FUNCTIONS
                                     daug = 0
                                nnrg_last = 0
                                 nnrg_now = 458488

 LCAO ALGORITHM ------------- ELEC =    1 --------------------------------
 Memory of pvpR : 3.5 MB

 Density error is 0.0472099412089

       Energy                       Rydberg                            eV
   E_KohnSham                -1568.32704911                -21338.1841954
     E_Harris                -1568.66885764                 -21342.834739
      E_Fermi               +0.465060845393                +6.32747741404

 LCAO ALGORITHM ------------- ELEC =    2 --------------------------------
 Memory of pvpR : 3.49798583984 MB

 Density error is 0.0195938590101

       Energy                       Rydberg                            eV
   E_KohnSham                -1568.53390437                -21340.9986057
     E_Harris                -1568.55472805                -21341.2819263
      E_Fermi               +0.553629672175                +7.53251812345

 LCAO ALGORITHM ------------- ELEC =    3 --------------------------------
 Memory of pvpR : 3.49798583984 MB

 Density error is 0.0122176445633

       Energy                       Rydberg                            eV
   E_KohnSham                -1568.54919037                -21341.2065823
     E_Harris                -1568.55518361                -21341.2881246
      E_Fermi               +0.545105981655                +7.41654736439

 LCAO ALGORITHM ------------- ELEC =    4 --------------------------------
 Memory of pvpR : 3.49798583984 MB

 Density error is 0.0019259619325

       Energy                       Rydberg                            eV
   E_KohnSham                -1568.54853383                -21341.1976496
     E_Harris                -1568.54900346                -21341.2040393
      E_Fermi               +0.559220527001                +7.60858560578

 LCAO ALGORITHM ------------- ELEC =    5 --------------------------------
 Memory of pvpR : 3.49798583984 MB

 Density error is 0.000740415774126

       Energy                       Rydberg                            eV
   E_KohnSham                -1568.54904538                -21341.2046097
     E_Harris                -1568.54907233                -21341.2049763
      E_Fermi               +0.556477047301                +7.57125864951

 LCAO ALGORITHM ------------- ELEC =    6 --------------------------------
 Memory of pvpR : 3.49798583984 MB

 Density error is 0.000396274049605

       Energy                       Rydberg                            eV
   E_KohnSham                -1568.54898653                -21341.2038089
     E_Harris                -1568.54900889                -21341.2041131
      E_Fermi               +0.555311432728                +7.55539964965

 LCAO ALGORITHM ------------- ELEC =    7 --------------------------------
 Memory of pvpR : 3.49798583984 MB

 Density error is 0.00012091410777

       Energy                       Rydberg                            eV
   E_KohnSham                -1568.54900983                -21341.2041259
     E_Harris                -1568.54901149                -21341.2041486
      E_Fermi               +0.556039864112                +7.56531046707

 LCAO ALGORITHM ------------- ELEC =    8 --------------------------------
 Memory of pvpR : 3.49798583984 MB

 Density error is 1.71738601117e-05

       Energy                       Rydberg                            eV
   E_KohnSham                -1568.54903644                 -21341.204488
     E_Harris                 -1568.5490365                -21341.2044888
      E_Fermi               +0.555857046016                +7.56282309927

 LCAO ALGORITHM ------------- ELEC =    9 --------------------------------
 Memory of pvpR : 3.49798583984 MB

 Density error is 5.8972926276e-06

       Energy                       Rydberg                            eV
   E_KohnSham                -1568.54902633                -21341.2043504
     E_Harris                -1568.54902633                -21341.2043504
      E_Fermi                +0.55582862523                +7.56243641463

 LCAO ALGORITHM ------------- ELEC =   10 --------------------------------
 Memory of pvpR : 3.49798583984 MB

 Density error is 2.23833642032e-06

       Energy                       Rydberg                            eV
   E_KohnSham                -1568.54902673                -21341.2043559
     E_Harris                -1568.54902673                -21341.2043559
      E_Fermi                +0.55583097518                +7.56246838735

 LCAO ALGORITHM ------------- ELEC =   11 --------------------------------
 Memory of pvpR : 3.49798583984 MB

 Density error is 3.48691753889e-07

       Energy                       Rydberg                            eV
   E_KohnSham                -1568.54902653                -21341.2043532
     E_Harris                -1568.54902653                -21341.2043532
       E_band                -155.573694046                -2116.68869794
   E_one_elec                -1316.43938237                -17911.0766718
    E_Hartree                +685.182991905                +9322.39286259
         E_xc                -160.709387951                -2186.56339823
      E_Ewald                -776.573129146                -10565.8194701
      E_demet            -2.44930722156e-06            -3.33245343658e-05
      E_descf                            +0                            +0
     E_efield                            +0                            +0
        E_exx                            +0                            +0
     E_DeePKS             -0.00428338447514              -0.0582784355866
      E_Fermi               +0.555831016197                +7.56246894541

 charge density convergence is achieved
 final etot is -21341.2043532 eV

 STATE ENERGY(eV) AND OCCUPATIONS    NSPIN == 1
 1/64 kpoint (Cartesian) = 0 0 0 (590 pws)
       1       -104.723      0.0312500
       2       -104.701      0.0312500
       3       -104.674      0.0312500
       4       -104.576      0.0312500
       5       -62.0455      0.0312500
       6       -62.0297      0.0312500
       7       -62.0239      0.0312500
       8       -62.0163      0.0312500
       9       -62.0069      0.0312500
      10       -62.0066      0.0312500
      11       -61.9991      0.0312500
      12       -61.9970      0.0312500
      13       -61.9690      0.0312500
      14       -61.9150      0.0312500
      15       -61.9044      0.0312500
      16       -61.8817      0.0312500
      17       -8.94979      0.0312500
      18       -8.77278      0.0312500
      19       -8.72128      0.0312500
      20       -8.41914      0.0312500
      21        1.02779      0.0312500
      22        1.08612      0.0312500
      23        1.16965      0.0312500
      24        2.21774      0.0312500
      25        2.31763      0.0312500
      26        2.39426      0.0312500
      27        2.42100      0.0312500
      28        2.51553      0.0312500
      29        2.57000      0.0312500
      30        2.65221      0.0312500
      31        2.83006      0.0312500
      32        2.95359      0.0312500
      33        5.22605      0.0312500
      34        5.24697      0.0312500
      35        5.25581      0.0312500
      36        5.28624      0.0312500
      37        5.30435      0.0312500
      38        5.37578      0.0312500
      39        5.38999      0.0312500
      40        5.43039      0.0312500
      41        5.47354      0.0312500
      42        5.50138      0.0312500
      43        5.51474      0.0312500
      44        5.60372      0.0312500
      45        5.65431      0.0312500
      46        5.68222      0.0312500
      47        5.70627      0.0312500
      48        5.76325      0.0312500
      49        5.80162      0.0312500
      50        6.84422      0.0312470
      51        6.86324      0.0312456
      52        6.91231      0.0312386
      53        8.17302    2.35632e-05
      54        10.1698        0.00000
      55        10.4697        0.00000
      56        10.5353        0.00000
      57        10.8037        0.00000
      58        11.1972        0.00000
      59        11.3343        0.00000
      60        13.9765        0.00000
      61        14.0591        0.00000
      62        14.1124        0.00000

 2/64 kpoint (Cartesian) = 0.0438672 0.00000 0.00000 (596 pws)
       1       -104.722      0.0312500
       2       -104.701      0.0312500
       3       -104.675      0.0312500
       4       -104.576      0.0312500
       5       -62.0454      0.0312500
       6       -62.0297      0.0312500
       7       -62.0239      0.0312500
       8       -62.0163      0.0312500
       9       -62.0070      0.0312500
      10       -62.0067      0.0312500
      11       -61.9991      0.0312500
      12       -61.9970      0.0312500
      13       -61.9691      0.0312500
      14       -61.9150      0.0312500
      15       -61.9045      0.0312500
      16       -61.8818      0.0312500
      17       -8.92505      0.0312500
      18       -8.79719      0.0312500
      19       -8.72093      0.0312500
      20       -8.42607      0.0312500
      21        1.18431      0.0312500
      22        1.22912      0.0312500
      23        1.33458      0.0312500
      24        2.05960      0.0312500
      25        2.12820      0.0312500
      26        2.30558      0.0312500
      27        2.36503      0.0312500
      28        2.46727      0.0312500
      29        2.50679      0.0312500
      30        2.58444      0.0312500
      31        2.73016      0.0312500
      32        2.87401      0.0312500
      33        5.16454      0.0312500
      34        5.23079      0.0312500
      35        5.23722      0.0312500
      36        5.27069      0.0312500
      37        5.29515      0.0312500
      38        5.32767      0.0312500
      39        5.34447      0.0312500
      40        5.42657      0.0312500
      41        5.45205      0.0312500
      42        5.49371      0.0312500
      43        5.62210      0.0312500
      44        5.65147      0.0312500
      45        5.70454      0.0312500
      46        5.80393      0.0312500
      47        5.80747      0.0312500
      48        5.86526      0.0312500
      49        5.90714      0.0312500
      50        6.53528      0.0312500
      51        6.64612      0.0312500
      52        6.67254      0.0312499
      53        8.98278    2.44423e-15
      54        10.4483        0.00000
      55        10.9546        0.00000
      56        11.0035        0.00000
      57        11.1247        0.00000
      58        11.6652        0.00000
      59        11.7582        0.00000
      60        12.9949        0.00000
      61        14.4038        0.00000
      62        14.5357        0.00000

 3/64 kpoint (Cartesian) = 0.0877344 0.00000 0.00000 (601 pws)
       1       -104.721      0.0312500
       2       -104.702      0.0312500
       3       -104.675      0.0312500
       4       -104.576      0.0312500
       5       -62.0452      0.0312500
       6       -62.0296      0.0312500
       7       -62.0239      0.0312500
       8       -62.0163      0.0312500
       9       -62.0071      0.0312500
      10       -62.0068      0.0312500
      11       -61.9990      0.0312500
      12       -61.9970      0.0312500
      13       -61.9692      0.0312500
      14       -61.9151      0.0312500
      15       -61.9046      0.0312500
      16       -61.8818      0.0312500
      17       -8.87023      0.0312500
      18       -8.85292      0.0312500
      19       -8.71991      0.0312500
      20       -8.43240      0.0312500
      21        1.49424      0.0312500
      22        1.51263      0.0312500
      23        1.70731      0.0312500
      24        1.71997      0.0312500
      25        1.77755      0.0312500
      26        1.90440      0.0312500
      27        2.32469      0.0312500
      28        2.42133      0.0312500
      29        2.48346      0.0312500
      30        2.56034      0.0312500
      31        2.66286      0.0312500
      32        2.83153      0.0312500
      33        5.17817      0.0312500
      34        5.19777      0.0312500
      35        5.22122      0.0312500
      36        5.24030      0.0312500
      37        5.25143      0.0312500
      38        5.28515      0.0312500
      39        5.34532      0.0312500
      40        5.42189      0.0312500
      41        5.42896      0.0312500
      42        5.49659      0.0312500
      43        5.59874      0.0312500
      44        5.62662      0.0312500
      45        5.91159      0.0312500
      46        5.92890      0.0312500
      47        6.07298      0.0312500
      48        6.10956      0.0312500
      49        6.18291      0.0312500
      50        6.22053      0.0312500
      51        6.24155      0.0312500
      52        6.25702      0.0312500
      53        10.1244        0.00000
      54        10.2841        0.00000
      55        11.5956        0.00000
      56        11.6737        0.00000
      57        11.7127        0.00000
      58        11.8806        0.00000
      59        12.4423        0.00000
      60        12.6116        0.00000
      61        14.7836        0.00000
      62        14.9011        0.00000

 4/64 kpoint (Cartesian) = 0.131602 0.00000 0.00000 (594 pws)
       1       -104.722      0.0312500
       2       -104.701      0.0312500
       3       -104.675      0.0312500
       4       -104.576      0.0312500
       5       -62.0454      0.0312500
       6       -62.0297      0.0312500
       7       -62.0239      0.0312500
       8       -62.0163      0.0312500
       9       -62.0070      0.0312500
      10       -62.0067      0.0312500
      11       -61.9991      0.0312500
      12       -61.9970      0.0312500
      13       -61.9691      0.0312500
      14       -61.9150      0.0312500
      15       -61.9045      0.0312500
      16       -61.8818      0.0312500
      17       -8.92505      0.0312500
      18       -8.79719      0.0312500
      19       -8.72093      0.0312500
      20       -8.42607      0.0312500
      21        1.18431      0.0312500
      22        1.22912      0.0312500
      23        1.33458      0.0312500
      24        2.05960      0.0312500
      25        2.12820      0.0312500
      26        2.30558      0.0312500
      27        2.36503      0.0312500
      28        2.46727      0.0312500
      29        2.50679      0.0312500
      30        2.58444      0.0312500
      31        2.73016      0.0312500
      32        2.87401      0.0312500
      33        5.16454      0.0312500
      34        5.23079      0.0312500
      35        5.23722      0.0312500
      36        5.27069      0.0312500
      37        5.29515      0.0312500
      38        5.32767      0.0312500
      39        5.34447      0.0312500
      40        5.42657      0.0312500
      41        5.45205      0.0312500
      42        5.49371      0.0312500
      43        5.62210      0.0312500
      44        5.65147      0.0312500
      45        5.70454      0.0312500
      46        5.80393      0.0312500
      47        5.80747      0.0312500
      48        5.86526      0.0312500
      49        5.90714      0.0312500
      50        6.53528      0.0312500
      51        6.64612      0.0312500
      52        6.67254      0.0312499
      53        8.98278    2.44423e-15
      54        10.4483        0.00000
      55        10.9546        0.00000
      56        11.0035        0.00000
      57        11.1247        0.00000
      58        11.6652        0.00000
      59        11.7582        0.00000
      60        12.9949        0.00000
      61        14.4038        0.00000
      62        14.5357        0.00000

 5/64 kpoint (Cartesian) = 0.00000 0.0438672 0.00000 (591 pws)
       1       -104.723      0.0312500
       2       -104.700      0.0312500
       3       -104.675      0.0312500
       4       -104.576      0.0312500
       5       -62.0455      0.0312500
       6       -62.0296      0.0312500
       7       -62.0240      0.0312500
       8       -62.0165      0.0312500
       9       -62.0069      0.0312500
      10       -62.0055      0.0312500
      11       -62.0001      0.0312500
      12       -61.9971      0.0312500
      13       -61.9690      0.0312500
      14       -61.9150      0.0312500
      15       -61.9046      0.0312500
      16       -61.8818      0.0312500
      17       -8.93402      0.0312500
      18       -8.77162      0.0312500
      19       -8.73819      0.0312500
      20       -8.42522      0.0312500
      21        1.15832      0.0312500
      22        1.25035      0.0312500
      23        1.33606      0.0312500
      24        2.08678      0.0312500
      25        2.21620      0.0312500
      26        2.26328      0.0312500
      27        2.33998      0.0312500
      28        2.41148      0.0312500
      29        2.46819      0.0312500
      30        2.58061      0.0312500
      31        2.73435      0.0312500
      32        2.92522      0.0312500
      33        5.17174      0.0312500
      34        5.21850      0.0312500
      35        5.23649      0.0312500
      36        5.27374      0.0312500
      37        5.30057      0.0312500
      38        5.30482      0.0312500
      39        5.33499      0.0312500
      40        5.39676      0.0312500
      41        5.45907      0.0312500
      42        5.51625      0.0312500
      43        5.61010      0.0312500
      44        5.65745      0.0312500
      45        5.70852      0.0312500
      46        5.78522      0.0312500
      47        5.84870      0.0312500
      48        5.87996      0.0312500
      49        5.89165      0.0312500
      50        6.53037      0.0312500
      51        6.63594      0.0312500
      52        6.69132      0.0312499
      53        8.98584    2.16840e-15
      54        10.4881        0.00000
      55        10.9374        0.00000
      56        11.0468        0.00000
      57        11.1698        0.00000
      58        11.4918        0.00000
      59        11.8269        0.00000
      60        12.9967        0.00000
      61        14.4528        0.00000
      62        14.4966        0.00000

 6/64 kpoint (Cartesian) = 0.0438672 0.0438672 0.00000 (592 pws)
       1       -104.722      0.0312500
       2       -104.700      0.0312500
       3       -104.675      0.0312500
       4       -104.576      0.0312500
       5       -62.0454      0.0312500
       6       -62.0294      0.0312500
       7       -62.0240      0.0312500
       8       -62.0164      0.0312500
       9       -62.0069      0.0312500
      10       -62.0056      0.0312500
      11       -62.0002      0.0312500
      12       -61.9971      0.0312500
      13       -61.9691      0.0312500
      14       -61.9150      0.0312500
      15       -61.9046      0.0312500
      16       -61.8818      0.0312500
      17       -8.90981      0.0312500
      18       -8.79367      0.0312500
      19       -8.73834      0.0312500
      20       -8.43170      0.0312500
      21        1.19733      0.0312500
      22        1.34592      0.0312500
      23        1.45160      0.0312500
      24        1.88541      0.0312500
      25        2.03083      0.0312500
      26        2.18238      0.0312500
      27        2.28436      0.0312500
      28        2.42691      0.0312500
      29        2.50462      0.0312500
      30        2.63687      0.0312500
      31        2.66410      0.0312500
      32        2.89918      0.0312500
      33        5.16885      0.0312500
      34        5.20580      0.0312500
      35        5.21672      0.0312500
      36        5.26992      0.0312500
      37        5.31100      0.0312500
      38        5.34116      0.0312500
      39        5.40385      0.0312500
      40        5.42423      0.0312500
      41        5.46334      0.0312500
      42        5.51953      0.0312500
      43        5.56719      0.0312500
      44        5.69884      0.0312500
      45        5.74295      0.0312500
      46        5.75837      0.0312500
      47        5.91283      0.0312500
      48        5.99490      0.0312500
      49        6.02324      0.0312500
      50        6.21628      0.0312500
      51        6.45119      0.0312500
      52        6.75284      0.0312496
      53        9.44296        0.00000
      54        10.7915        0.00000
      55        11.1093        0.00000
      56        11.2399        0.00000
      57        11.5425        0.00000
      58        11.7354        0.00000
      59        12.3529        0.00000
      60        12.9855        0.00000
      61        14.2579        0.00000
      62        14.3192        0.00000

 7/64 kpoint (Cartesian) = 0.0877344 0.0438672 0.00000 (596 pws)
       1       -104.721      0.0312500
       2       -104.701      0.0312500
       3       -104.676      0.0312500
       4       -104.576      0.0312500
       5       -62.0453      0.0312500
       6       -62.0294      0.0312500
       7       -62.0239      0.0312500
       8       -62.0163      0.0312500
       9       -62.0070      0.0312500
      10       -62.0058      0.0312500
      11       -62.0001      0.0312500
      12       -61.9972      0.0312500
      13       -61.9692      0.0312500
      14       -61.9151      0.0312500
      15       -61.9046      0.0312500
      16       -61.8818      0.0312500
      17       -8.86545      0.0312500
      18       -8.83811      0.0312500
      19       -8.73585      0.0312500
      20       -8.43846      0.0312500
      21        1.35145      0.0312500
      22        1.49888      0.0312500
      23        1.60728      0.0312500
      24        1.69800      0.0312500
      25        1.75489      0.0312500
      26        1.89188      0.0312500
      27        2.33100      0.0312500
      28        2.40649      0.0312500
      29        2.53211      0.0312500
      30        2.59953      0.0312500
      31        2.74617      0.0312500
      32        2.83874      0.0312500
      33        5.19918      0.0312500
      34        5.21130      0.0312500
      35        5.23462      0.0312500
      36        5.24586      0.0312500
      37        5.29438      0.0312500
      38        5.33657      0.0312500
      39        5.35861      0.0312500
      40        5.41896      0.0312500
      41        5.53070      0.0312500
      42        5.56924      0.0312500
      43        5.62516      0.0312500
      44        5.66196      0.0312500
      45        5.84842      0.0312500
      46        5.87829      0.0312500
      47        6.01379      0.0312500
      48        6.02571      0.0312500
      49        6.04233      0.0312500
      50        6.07692      0.0312500
      51        6.40260      0.0312500
      52        6.42292      0.0312500
      53        10.3851        0.00000
      54        10.5762        0.00000
      55        11.5451        0.00000
      56        11.6857        0.00000
      57        12.1174        0.00000
      58        12.2647        0.00000
      59        12.5292        0.00000
      60        12.5517        0.00000
      61        13.9937        0.00000
      62        14.0556        0.00000

 8/64 kpoint (Cartesian) = 0.131602 0.0438672 0.00000 (596 pws)
       1       -104.722      0.0312500
       2       -104.700      0.0312500
       3       -104.675      0.0312500
       4       -104.576      0.0312500
       5       -62.0454      0.0312500
       6       -62.0295      0.0312500
       7       -62.0240      0.0312500
       8       -62.0164      0.0312500
       9       -62.0070      0.0312500
      10       -62.0057      0.0312500
      11       -62.0000      0.0312500
      12       -61.9972      0.0312500
      13       -61.9691      0.0312500
      14       -61.9151      0.0312500
      15       -61.9046      0.0312500
      16       -61.8818      0.0312500
      17       -8.91254      0.0312500
      18       -8.79160      0.0312500
      19       -8.73699      0.0312500
      20       -8.43227      0.0312500
      21        1.27709      0.0312500
      22        1.33552      0.0312500
      23        1.40602      0.0312500
      24        1.78404      0.0312500
      25        2.08854      0.0312500
      26        2.21652      0.0312500
      27        2.28416      0.0312500
      28        2.36078      0.0312500
      29        2.50121      0.0312500
      30        2.60103      0.0312500
      31        2.80617      0.0312500
      32        2.84774      0.0312500
      33        5.16013      0.0312500
      34        5.20782      0.0312500
      35        5.22279      0.0312500
      36        5.27441      0.0312500
      37        5.30927      0.0312500
      38        5.36566      0.0312500
      39        5.40433      0.0312500
      40        5.41738      0.0312500
      41        5.46002      0.0312500
      42        5.54596      0.0312500
      43        5.58219      0.0312500
      44        5.68777      0.0312500
      45        5.75496      0.0312500
      46        5.77773      0.0312500
      47        5.87625      0.0312500
      48        5.97035      0.0312500
      49        6.02556      0.0312500
      50        6.21444      0.0312500
      51        6.42793      0.0312500
      52        6.73823      0.0312497
      53        9.44481        0.00000
      54        10.8030        0.00000
      55        11.1735        0.00000
      56        11.3267        0.00000
      57        11.4860        0.00000
      58        11.6690        0.00000
      59        12.3172        0.00000
      60        13.0734        0.00000
      61        14.1928        0.00000
      62        14.3827        0.00000

 9/64 kpoint (Cartesian) = 0.00000 0.0877344 0.00000 (605 pws)
       1       -104.723      0.0312500
       2       -104.699      0.0312500
       3       -104.676      0.0312500
       4       -104.576      0.0312500
       5       -62.0455      0.0312500
       6       -62.0295      0.0312500
       7       -62.0240      0.0312500
       8       -62.0167      0.0312500
       9       -62.0069      0.0312500
      10       -62.0035      0.0312500
      11       -62.0020      0.0312500
      12       -61.9972      0.0312500
      13       -61.9691      0.0312500
      14       -61.9150      0.0312500
      15       -61.9047      0.0312500
      16       -61.8818      0.0312500
      17       -8.91389      0.0312500
      18       -8.77375      0.0312500
      19       -8.75671      0.0312500
      20       -8.43070      0.0312500
      21        1.39988      0.0312500
      22        1.55750      0.0312500
      23        1.73267      0.0312500
      24        1.77846      0.0312500
      25        1.80737      0.0312500
      26        1.94167      0.0312500
      27        2.23931      0.0312500
      28        2.35611      0.0312500
      29        2.45213      0.0312500
      30        2.55558      0.0312500
      31        2.67449      0.0312500
      32        2.90802      0.0312500
      33        5.17511      0.0312500
      34        5.20445      0.0312500
      35        5.21318      0.0312500
      36        5.23425      0.0312500
      37        5.23583      0.0312500
      38        5.27906      0.0312500
      39        5.32090      0.0312500
      40        5.39667      0.0312500
      41        5.43917      0.0312500
      42        5.52127      0.0312500
      43        5.59461      0.0312500
      44        5.63408      0.0312500
      45        5.90334      0.0312500
      46        5.94349      0.0312500
      47        6.08320      0.0312500
      48        6.12783      0.0312500
      49        6.14747      0.0312500
      50        6.20613      0.0312500
      51        6.26060      0.0312500
      52        6.28375      0.0312500
      53        10.1290        0.00000
      54        10.3528        0.00000
      55        11.4912        0.00000
      56        11.6171        0.00000
      57        11.8282        0.00000
      58        12.0594        0.00000
      59        12.2673        0.00000
      60        12.6540        0.00000
      61        14.7010        0.00000
      62        14.7571        0.00000

 10/64 kpoint (Cartesian) = 0.0438672 0.0877344 0.00000 (599 pws)
       1       -104.722      0.0312500
       2       -104.699      0.0312500
       3       -104.676      0.0312500
       4       -104.576      0.0312500
       5       -62.0454      0.0312500
       6       -62.0293      0.0312500
       7       -62.0240      0.0312500
       8       -62.0164      0.0312500
       9       -62.0069      0.0312500
      10       -62.0038      0.0312500
      11       -62.0019      0.0312500
      12       -61.9973      0.0312500
      13       -61.9692      0.0312500
      14       -61.9151      0.0312500
      15       -61.9047      0.0312500
      16       -61.8818      0.0312500
      17       -8.89420      0.0312500
      18       -8.78276      0.0312500
      19       -8.76311      0.0312500
      20       -8.43759      0.0312500
      21        1.31967      0.0312500
      22        1.53748      0.0312500
      23        1.61314      0.0312500
      24        1.68745      0.0312500
      25        1.74189      0.0312500
      26        1.95294      0.0312500
      27        2.27553      0.0312500
      28        2.41108      0.0312500
      29        2.47195      0.0312500
      30        2.62440      0.0312500
      31        2.75008      0.0312500
      32        2.87237      0.0312500
      33        5.19059      0.0312500
      34        5.21667      0.0312500
      35        5.23352      0.0312500
      36        5.25204      0.0312500
      37        5.27260      0.0312500
      38        5.32989      0.0312500
      39        5.36205      0.0312500
      40        5.42880      0.0312500
      41        5.51430      0.0312500
      42        5.56436      0.0312500
      43        5.63422      0.0312500
      44        5.66397      0.0312500
      45        5.82873      0.0312500
      46        5.88295      0.0312500
      47        5.99041      0.0312500
      48        6.01728      0.0312500
      49        6.08657      0.0312500
      50        6.10271      0.0312500
      51        6.39411      0.0312500
      52        6.42460      0.0312500
      53        10.3714        0.00000
      54        10.6822        0.00000
      55        11.4397        0.00000
      56        11.7265        0.00000
      57        12.0070        0.00000
      58        12.2950        0.00000
      59        12.5468        0.00000
      60        12.6903        0.00000
      61        13.8414        0.00000
      62        14.0790        0.00000

 11/64 kpoint (Cartesian) = 0.0877344 0.0877344 0.00000 (594 pws)
       1       -104.721      0.0312500
       2       -104.700      0.0312500
       3       -104.676      0.0312500
       4       -104.576      0.0312500
       5       -62.0453      0.0312500
       6       -62.0291      0.0312500
       7       -62.0240      0.0312500
       8       -62.0162      0.0312500
       9       -62.0069      0.0312500
      10       -62.0041      0.0312500
      11       -62.0018      0.0312500
      12       -61.9973      0.0312500
      13       -61.9692      0.0312500
      14       -61.9151      0.0312500
      15       -61.9047      0.0312500
      16       -61.8818      0.0312500
      17       -8.86058      0.0312500
      18       -8.81565      0.0312500
      19       -8.75938      0.0312500
      20       -8.44468      0.0312500
      21        1.25481      0.0312500
      22        1.44959      0.0312500
      23        1.48409      0.0312500
      24        1.59015      0.0312500
      25        1.96036      0.0312500
      26        1.99999      0.0312500
      27        2.09449      0.0312500
      28        2.38009      0.0312500
      29        2.51309      0.0312500
      30        2.67793      0.0312500
      31        2.82085      0.0312500
      32        2.88387      0.0312500
      33        5.23314      0.0312500
      34        5.25068      0.0312500
      35        5.27172      0.0312500
      36        5.27809      0.0312500
      37        5.32912      0.0312500
      38        5.34939      0.0312500
      39        5.38228      0.0312500
      40        5.39391      0.0312500
      41        5.55547      0.0312500
      42        5.61806      0.0312500
      43        5.66688      0.0312500
      44        5.70506      0.0312500
      45        5.75144      0.0312500
      46        5.77726      0.0312500
      47        5.82548      0.0312500
      48        5.84459      0.0312500
      49        6.28112      0.0312500
      50        6.34331      0.0312500
      51        6.36125      0.0312500
      52        6.41318      0.0312500
      53        10.6733        0.00000
      54        10.9694        0.00000
      55        11.2083        0.00000
      56        11.3808        0.00000
      57        12.5113        0.00000
      58        12.8215        0.00000
      59        13.0290        0.00000
      60        13.0983        0.00000
      61        13.5770        0.00000
      62        13.7772        0.00000

 12/64 kpoint (Cartesian) = 0.131602 0.0877344 0.00000 (600 pws)
       1       -104.722      0.0312500
       2       -104.699      0.0312500
       3       -104.676      0.0312500
       4       -104.576      0.0312500
       5       -62.0454      0.0312500
       6       -62.0293      0.0312500
       7       -62.0240      0.0312500
       8       -62.0164      0.0312500
       9       -62.0069      0.0312500
      10       -62.0038      0.0312500
      11       -62.0019      0.0312500
      12       -61.9973      0.0312500
      13       -61.9692      0.0312500
      14       -61.9151      0.0312500
      15       -61.9047      0.0312500
      16       -61.8818      0.0312500
      17       -8.89420      0.0312500
      18       -8.78276      0.0312500
      19       -8.76311      0.0312500
      20       -8.43759      0.0312500
      21        1.31967      0.0312500
      22        1.53748      0.0312500
      23        1.61314      0.0312500
      24        1.68745      0.0312500
      25        1.74189      0.0312500
      26        1.95294      0.0312500
      27        2.27553      0.0312500
      28        2.41108      0.0312500
      29        2.47195      0.0312500
      30        2.62440      0.0312500
      31        2.75008      0.0312500
      32        2.87237      0.0312500
      33        5.19059      0.0312500
      34        5.21667      0.0312500
      35        5.23352      0.0312500
      36        5.25204      0.0312500
      37        5.27260      0.0312500
      38        5.32989      0.0312500
      39        5.36205      0.0312500
      40        5.42880      0.0312500
      41        5.51430      0.0312500
      42        5.56436      0.0312500
      43        5.63422      0.0312500
      44        5.66397      0.0312500
      45        5.82873      0.0312500
      46        5.88295      0.0312500
      47        5.99041      0.0312500
      48        6.01728      0.0312500
      49        6.08657      0.0312500
      50        6.10271      0.0312500
      51        6.39411      0.0312500
      52        6.42460      0.0312500
      53        10.3714        0.00000
      54        10.6822        0.00000
      55        11.4397        0.00000
      56        11.7265        0.00000
      57        12.0070        0.00000
      58        12.2950        0.00000
      59        12.5468        0.00000
      60        12.6903        0.00000
      61        13.8414        0.00000
      62        14.0790        0.00000

 13/64 kpoint (Cartesian) = 0.00000 0.131602 0.00000 (603 pws)
       1       -104.723      0.0312500
       2       -104.700      0.0312500
       3       -104.675      0.0312500
       4       -104.576      0.0312500
       5       -62.0455      0.0312500
       6       -62.0296      0.0312500
       7       -62.0240      0.0312500
       8       -62.0165      0.0312500
       9       -62.0069      0.0312500
      10       -62.0055      0.0312500
      11       -62.0001      0.0312500
      12       -61.9971      0.0312500
      13       -61.9690      0.0312500
      14       -61.9150      0.0312500
      15       -61.9046      0.0312500
      16       -61.8818      0.0312500
      17       -8.93402      0.0312500
      18       -8.77162      0.0312500
      19       -8.73819      0.0312500
      20       -8.42522      0.0312500
      21        1.15832      0.0312500
      22        1.25035      0.0312500
      23        1.33606      0.0312500
      24        2.08678      0.0312500
      25        2.21620      0.0312500
      26        2.26328      0.0312500
      27        2.33998      0.0312500
      28        2.41148      0.0312500
      29        2.46819      0.0312500
      30        2.58061      0.0312500
      31        2.73435      0.0312500
      32        2.92522      0.0312500
      33        5.17174      0.0312500
      34        5.21850      0.0312500
      35        5.23649      0.0312500
      36        5.27374      0.0312500
      37        5.30057      0.0312500
      38        5.30482      0.0312500
      39        5.33499      0.0312500
      40        5.39676      0.0312500
      41        5.45907      0.0312500
      42        5.51625      0.0312500
      43        5.61010      0.0312500
      44        5.65745      0.0312500
      45        5.70852      0.0312500
      46        5.78522      0.0312500
      47        5.84870      0.0312500
      48        5.87996      0.0312500
      49        5.89165      0.0312500
      50        6.53037      0.0312500
      51        6.63594      0.0312500
      52        6.69132      0.0312499
      53        8.98584    2.16840e-15
      54        10.4881        0.00000
      55        10.9374        0.00000
      56        11.0468        0.00000
      57        11.1698        0.00000
      58        11.4918        0.00000
      59        11.8269        0.00000
      60        12.9967        0.00000
      61        14.4528        0.00000
      62        14.4966        0.00000

 14/64 kpoint (Cartesian) = 0.0438672 0.131602 0.00000 (601 pws)
       1       -104.722      0.0312500
       2       -104.700      0.0312500
       3       -104.675      0.0312500
       4       -104.576      0.0312500
       5       -62.0454      0.0312500
       6       -62.0295      0.0312500
       7       -62.0240      0.0312500
       8       -62.0164      0.0312500
       9       -62.0070      0.0312500
      10       -62.0057      0.0312500
      11       -62.0000      0.0312500
      12       -61.9972      0.0312500
      13       -61.9691      0.0312500
      14       -61.9151      0.0312500
      15       -61.9046      0.0312500
      16       -61.8818      0.0312500
      17       -8.91254      0.0312500
      18       -8.79160      0.0312500
      19       -8.73699      0.0312500
      20       -8.43227      0.0312500
      21        1.27709      0.0312500
      22        1.33552      0.0312500
      23        1.40602      0.0312500
      24        1.78404      0.0312500
      25        2.08854      0.0312500
      26        2.21652      0.0312500
      27        2.28416      0.0312500
      28        2.36078      0.0312500
      29        2.50121      0.0312500
      30        2.60103      0.0312500
      31        2.80617      0.0312500
      32        2.84774      0.0312500
      33        5.16013      0.0312500
      34        5.20782      0.0312500
      35        5.22279      0.0312500
      36        5.27441      0.0312500
      37        5.30927      0.0312500
      38        5.36566      0.0312500
      39        5.40433      0.0312500
      40        5.41738      0.0312500
      41        5.46002      0.0312500
      42        5.54596      0.0312500
      43        5.58219      0.0312500
      44        5.68777      0.0312500
      45        5.75496      0.0312500
      46        5.77773      0.0312500
      47        5.87625      0.0312500
      48        5.97035      0.0312500
      49        6.02556      0.0312500
      50        6.21444      0.0312500
      51        6.42793      0.0312500
      52        6.73823      0.0312497
      53        9.44481        0.00000
      54        10.8030        0.00000
      55        11.1735        0.00000
      56        11.3267        0.00000
      57        11.4860        0.00000
      58        11.6690        0.00000
      59        12.3172        0.00000
      60        13.0734        0.00000
      61        14.1928        0.00000
      62        14.3827        0.00000

 15/64 kpoint (Cartesian) = 0.0877344 0.131602 0.00000 (603 pws)
       1       -104.721      0.0312500
       2       -104.701      0.0312500
       3       -104.676      0.0312500
       4       -104.576      0.0312500
       5       -62.0453      0.0312500
       6       -62.0294      0.0312500
       7       -62.0239      0.0312500
       8       -62.0163      0.0312500
[...]
       5       -62.0454      0.0312500
       6       -62.0290      0.0312500
       7       -62.0238      0.0312500
       8       -62.0165      0.0312500
       9       -62.0066      0.0312500
      10       -62.0037      0.0312500
      11       -62.0016      0.0312500
      12       -61.9980      0.0312500
      13       -61.9693      0.0312500
      14       -61.9151      0.0312500
      15       -61.9047      0.0312500
      16       -61.8818      0.0312500
      17       -8.88617      0.0312500
      18       -8.78945      0.0312500
      19       -8.76156      0.0312500
      20       -8.44010      0.0312500
      21        1.09430      0.0312500
      22        1.32260      0.0312500
      23        1.37541      0.0312500
      24        1.44452      0.0312500
      25        2.03529      0.0312500
      26        2.13183      0.0312500
      27        2.39848      0.0312500
      28        2.49374      0.0312500
      29        2.53323      0.0312500
      30        2.66107      0.0312500
      31        2.76280      0.0312500
      32        2.97414      0.0312500
      33        5.22455      0.0312500
      34        5.25362      0.0312500
      35        5.26522      0.0312500
      36        5.28971      0.0312500
      37        5.30711      0.0312500
      38        5.33335      0.0312500
      39        5.37398      0.0312500
      40        5.42635      0.0312500
      41        5.49432      0.0312500
      42        5.50595      0.0312500
      43        5.61328      0.0312500
      44        5.67248      0.0312500
      45        5.80887      0.0312500
      46        5.88943      0.0312500
      47        6.05401      0.0312500
      48        6.16082      0.0312500
      49        6.18563      0.0312500
      50        6.27351      0.0312500
      51        6.29995      0.0312500
      52        6.36232      0.0312500
      53        10.1960        0.00000
      54        10.4169        0.00000
      55        10.9468        0.00000
      56        11.2930        0.00000
      57        12.3914        0.00000
      58        12.6399        0.00000
      59        12.9333        0.00000
      60        13.0611        0.00000
      61        13.9594        0.00000
      62        14.2095        0.00000

 61/64 kpoint (Cartesian) = 0.00000 0.131602 0.131602 (597 pws)
       1       -104.722      0.0312500
       2       -104.700      0.0312500
       3       -104.675      0.0312500
       4       -104.576      0.0312500
       5       -62.0455      0.0312500
       6       -62.0294      0.0312500
       7       -62.0237      0.0312500
       8       -62.0170      0.0312500
       9       -62.0068      0.0312500
      10       -62.0047      0.0312500
      11       -62.0002      0.0312500
      12       -61.9977      0.0312500
      13       -61.9691      0.0312500
      14       -61.9151      0.0312500
      15       -61.9046      0.0312500
      16       -61.8818      0.0312500
      17       -8.91954      0.0312500
      18       -8.77858      0.0312500
      19       -8.74245      0.0312500
      20       -8.43277      0.0312500
      21        1.25072      0.0312500
      22        1.34537      0.0312500
      23        1.39986      0.0312500
      24        1.84739      0.0312500
      25        2.02002      0.0312500
      26        2.19168      0.0312500
      27        2.31794      0.0312500
      28        2.41996      0.0312500
      29        2.55075      0.0312500
      30        2.60450      0.0312500
      31        2.71449      0.0312500
      32        2.84031      0.0312500
      33        5.16267      0.0312500
      34        5.20677      0.0312500
      35        5.21551      0.0312500
      36        5.28130      0.0312500
      37        5.30705      0.0312500
      38        5.35020      0.0312500
      39        5.40427      0.0312500
      40        5.41170      0.0312500
      41        5.46219      0.0312500
      42        5.53871      0.0312500
      43        5.56164      0.0312500
      44        5.71442      0.0312500
      45        5.73348      0.0312500
      46        5.74332      0.0312500
      47        5.91507      0.0312500
      48        5.99380      0.0312500
      49        6.02362      0.0312500
      50        6.21245      0.0312500
      51        6.45470      0.0312500
      52        6.75088      0.0312496
      53        9.44598        0.00000
      54        10.8374        0.00000
      55        11.1514        0.00000
      56        11.2558        0.00000
      57        11.5078        0.00000
      58        11.7329        0.00000
      59        12.2934        0.00000
      60        12.9721        0.00000
      61        14.2622        0.00000
      62        14.3578        0.00000

 62/64 kpoint (Cartesian) = 0.0438672 0.131602 0.131602 (605 pws)
       1       -104.722      0.0312500
       2       -104.700      0.0312500
       3       -104.676      0.0312500
       4       -104.576      0.0312500
       5       -62.0453      0.0312500
       6       -62.0294      0.0312500
       7       -62.0234      0.0312500
       8       -62.0170      0.0312500
       9       -62.0069      0.0312500
      10       -62.0049      0.0312500
      11       -62.0001      0.0312500
      12       -61.9978      0.0312500
      13       -61.9692      0.0312500
      14       -61.9151      0.0312500
      15       -61.9046      0.0312500
      16       -61.8818      0.0312500
      17       -8.89999      0.0312500
      18       -8.79285      0.0312500
      19       -8.74400      0.0312500
      20       -8.43881      0.0312500
      21        1.21696      0.0312500
      22        1.25466      0.0312500
      23        1.30711      0.0312500
      24        1.71815      0.0312500
      25        2.05578      0.0312500
      26        2.16659      0.0312500
      27        2.42011      0.0312500
      28        2.49962      0.0312500
      29        2.57424      0.0312500
      30        2.63098      0.0312500
      31        2.69477      0.0312500
      32        2.81908      0.0312500
      33        5.21151      0.0312500
      34        5.22544      0.0312500
      35        5.23085      0.0312500
      36        5.29545      0.0312500
      37        5.32336      0.0312500
      38        5.36368      0.0312500
      39        5.40157      0.0312500
      40        5.41646      0.0312500
      41        5.42876      0.0312500
      42        5.47806      0.0312500
      43        5.48359      0.0312500
      44        5.86259      0.0312500
      45        5.87337      0.0312500
      46        5.91729      0.0312500
      47        5.94372      0.0312500
      48        5.97103      0.0312500
      49        6.00519      0.0312500
      50        6.03596      0.0312500
      51        6.60541      0.0312500
      52        6.60984      0.0312500
      53        9.54096        0.00000
      54        10.7073        0.00000
      55        11.0471        0.00000
      56        11.2220        0.00000
      57        11.9553        0.00000
      58        12.1220        0.00000
      59        12.5898        0.00000
      60        13.1983        0.00000
      61        14.1641        0.00000
      62        14.3435        0.00000

 63/64 kpoint (Cartesian) = 0.0877344 0.131602 0.131602 (602 pws)
       1       -104.721      0.0312500
       2       -104.701      0.0312500
       3       -104.676      0.0312500
       4       -104.576      0.0312500
       5       -62.0452      0.0312500
       6       -62.0292      0.0312500
       7       -62.0234      0.0312500
       8       -62.0166      0.0312500
       9       -62.0068      0.0312500
      10       -62.0052      0.0312500
      11       -62.0003      0.0312500
      12       -61.9978      0.0312500
      13       -61.9693      0.0312500
      14       -61.9152      0.0312500
      15       -61.9047      0.0312500
      16       -61.8818      0.0312500
      17       -8.86163      0.0312500
      18       -8.82775      0.0312500
      19       -8.74637      0.0312500
      20       -8.44203      0.0312500
      21        1.11623      0.0312500
      22        1.24161      0.0312500
      23        1.36009      0.0312500
      24        1.47044      0.0312500
      25        2.05933      0.0312500
      26        2.19220      0.0312500
      27        2.44472      0.0312500
      28        2.49437      0.0312500
      29        2.57609      0.0312500
      30        2.65871      0.0312500
      31        2.72884      0.0312500
      32        2.88258      0.0312500
      33        5.21031      0.0312500
      34        5.24849      0.0312500
      35        5.26309      0.0312500
      36        5.29720      0.0312500
      37        5.32362      0.0312500
      38        5.35169      0.0312500
      39        5.37463      0.0312500
      40        5.41482      0.0312500
      41        5.45748      0.0312500
      42        5.49237      0.0312500
      43        5.63226      0.0312500
      44        5.66742      0.0312500
      45        5.82397      0.0312500
      46        5.88405      0.0312500
      47        6.06286      0.0312500
      48        6.11354      0.0312500
      49        6.24779      0.0312500
      50        6.28324      0.0312500
      51        6.31559      0.0312500
      52        6.35470      0.0312500
      53        10.1554        0.00000
      54        10.3622        0.00000
      55        11.0934        0.00000
      56        11.2521        0.00000
      57        12.2642        0.00000
      58        12.5759        0.00000
      59        12.8553        0.00000
      60        13.0634        0.00000
      61        14.0111        0.00000
      62        14.2677        0.00000

 64/64 kpoint (Cartesian) = 0.131602 0.131602 0.131602 (599 pws)
       1       -104.722      0.0312500
       2       -104.700      0.0312500
       3       -104.676      0.0312500
       4       -104.576      0.0312500
       5       -62.0454      0.0312500
       6       -62.0292      0.0312500
       7       -62.0238      0.0312500
       8       -62.0167      0.0312500
       9       -62.0068      0.0312500
      10       -62.0050      0.0312500
      11       -62.0004      0.0312500
      12       -61.9976      0.0312500
      13       -61.9692      0.0312500
      14       -61.9151      0.0312500
      15       -61.9046      0.0312500
      16       -61.8818      0.0312500
      17       -8.89800      0.0312500
      18       -8.79456      0.0312500
      19       -8.74668      0.0312500
      20       -8.43623      0.0312500
      21        1.12223      0.0312500
      22        1.30282      0.0312500
      23        1.43743      0.0312500
      24        1.70175      0.0312500
      25        2.04632      0.0312500
      26        2.12827      0.0312500
      27        2.36026      0.0312500
      28        2.45048      0.0312500
      29        2.49534      0.0312500
      30        2.62175      0.0312500
      31        2.72407      0.0312500
      32        2.97513      0.0312500
      33        5.20909      0.0312500
      34        5.23339      0.0312500
      35        5.23706      0.0312500
      36        5.28969      0.0312500
      37        5.29966      0.0312500
      38        5.34917      0.0312500
      39        5.40404      0.0312500
      40        5.41911      0.0312500
      41        5.44150      0.0312500
      42        5.47813      0.0312500
      43        5.50794      0.0312500
      44        5.84873      0.0312500
      45        5.87454      0.0312500
      46        5.91771      0.0312500
      47        5.93554      0.0312500
      48        5.95647      0.0312500
      49        6.00467      0.0312500
      50        6.07002      0.0312500
      51        6.58936      0.0312500
      52        6.59106      0.0312500
      53        9.57495        0.00000
      54        10.7927        0.00000
      55        11.0046        0.00000
      56        11.1020        0.00000
      57        11.8971        0.00000
      58        12.3457        0.00000
      59        12.5796        0.00000
      60        13.1741        0.00000
      61        14.2564        0.00000
      62        14.3365        0.00000

 EFERMI = 7.562468945408997 eV
 OUT.ABACUS/ final etot is -21341.20435318402 eV
 Descriptors have been printed to .//descriptor.dat
 Calculate the energy density matrix with k 
                                      irr = 35552
                                 LNNR.nnr = 35552
                                      irr = 35552
                                 LNNR.nnr = 35552
 Calculate the energy density matrix with k 
                                      irr = 35552
                                 LNNR.nnr = 35552
                                      irr = 35552
                                 LNNR.nnr = 35552
 LNNR.nnrg in cal_force_k = 458488
 F_delta has been printed to .//F_delta.dat
 correction force for each atom along direction 1 is 2.38837e-05
 correction force for each atom along direction 2 is -2.09194e-05
 correction force for each atom along direction 3 is -1.62189e-05

 ><><><><><><><><><><><><><><><><><><><><><><

    TOTAL-FORCE (eV/Angstrom)

 ><><><><><><><><><><><><><><><><><><><><><><

     atom              x              y              z
      Cu1  -0.0058360010    +0.29515711    +0.36230006
      Cu2    +0.10273664    -0.11874573   -0.047971496
      Cu3   +0.093593954    -0.22190602   +0.031940209
      Cu4    -0.15178929    -0.32184991   -0.030720285
      Br1    +0.24428511  -0.0061711285    +0.54102982
      Br2   +0.088732420    +0.47576574   -0.028984510
      Br3    +0.15232948    -0.58213743    -0.55127669
      Br4    -0.52405232    +0.47988737    -0.27631712


 --------------------------------------------
 !FINAL_ETOT_IS -21341.20435318402 eV
 --------------------------------------------






  |CLASS_NAME---------|NAME---------------|TIME(Sec)-----|CALLS----|AVG------|PER%-------
                                      total         185.38        11       17.   1.0e+02%
               Run_lcao           lcao_line         185.36         1   1.9e+02    1.e+02%
            ORB_control      read_orb_first        0.72304         1      0.72      0.39%
          LCAO_Orbitals       Read_Orbitals        0.72304         1      0.72      0.39%
            NOrbital_Lm       extra_uniform        0.54009        59    0.0092      0.29%
          Mathzone_Add1       Uni_Deriv_Phi        0.50106        59    0.0085      0.27%
            ORB_control      set_orb_tables         14.082         1       14.       7.6%
         ORB_gen_tables          gen_tables         14.082         1       14.       7.6%
          ORB_table_phi          init_Table         3.7272         1       3.7       2.0%
          ORB_table_phi      cal_ST_Phi12_R         3.6614       428    0.0086       2.0%
         ORB_table_beta     init_Table_Beta         1.7924         1       1.8      0.97%
         ORB_table_beta       VNL_PhiBeta_R         1.7735       248    0.0072      0.96%
        ORB_table_alpha    init_Table_Alpha         8.0669         1       8.1       4.4%
        ORB_table_alpha        S_PhiAlpha_R         7.9830       930    0.0086       4.3%
              Potential            init_pot        0.11245         2     0.056     0.061%
                    FFT               FFT3D        0.14507       180   0.00081     0.078%
              Potential            v_of_rho        0.12135        13    0.0093     0.065%
                H_XC_pw                v_xc        0.11819        14    0.0084     0.064%
              LOOP_ions            opt_ions         170.33         1   1.7e+02       92.%
              LOOP_elec     solve_elec_stru         109.03         1   1.1e+02       59.%
            Grid_Driver           Find_atom        0.19497     11888   1.6e-05      0.11%
              LOOP_elec       before_solver        0.49456         1      0.49      0.27%
            LCAO_Hamilt   set_lcao_matrices        0.16872         1      0.17     0.091%
        LCAO_gen_fixedHbuild_Nonlocal_mu_new        0.38236         2      0.19      0.21%
            LCAO_Deepks      build_psialpha        0.28749         1      0.29      0.16%
         ORB_gen_tables  snap_psialpha_half        0.26204      2878   9.1e-05      0.14%
              LOOP_elec              solver         108.46         1   1.1e+02       59.%
               ELEC_scf                 scf         108.46         1   1.1e+02       59.%
             H_Ewald_pw       compute_ewald        0.27531         1      0.28      0.15%
          ELEC_cbands_k           cal_bands         93.441        11       8.5       50.%
            LCAO_Deepks  cal_projected_DM_k         73.058        13       5.6       39.%
        LCAO_DESCRIPTOR       add_v_delta_k         23.563        11       2.1       13.%
                 Gint_k              vlocal         6.4600        11      0.59       3.5%
             Efficience              each_k         14.250       704     0.020       7.7%
             Efficience                 H_k         6.1783       704    0.0088       3.3%
            LCAO_Hamilt        calculate_Hk         6.1760       704    0.0088       3.3%
                 Gint_k        folding_vl_k         2.7826       704    0.0040       1.5%
                 Gint_k              Distri         1.7096       704    0.0024      0.92%
               LCAO_nnr      folding_fixedH         3.3742       704    0.0048       1.8%
             Efficience             diago_k         8.0705       704     0.011       4.4%
      Diago_LCAO_Matrix          elpa_solve         7.6805       704     0.011       4.1%
      Diago_LCAO_Matrix    gath_eig_complex        0.29509       704   0.00042      0.16%
      Local_Orbital_Cha           sum_bands         14.497        11       1.3       7.8%
            LCAO_Charge            cal_dk_k         9.5860        11      0.87       5.2%
                 Gint_k           cal_rho_k         4.4029        11      0.40       2.4%
              LOOP_ions        force_stress         56.214         1       56.       30.%
      Force_Stress_LCAO      getForceStress         56.214         1       56.       30.%
           Force_LCAO_k            ftable_k         23.218         1       23.       13.%
           Force_LCAO_k          allocate_k        0.63203         1      0.63      0.34%
           Force_LCAO_k      cal_foverlap_k         1.8071         1       1.8      0.97%
           Force_LCAO_k           set_EDM_k         3.5461         2       1.8       1.9%
           Force_LCAO_k      cal_fvl_dphi_k         7.8149         1       7.8       4.2%
                 Gint_k     svl_k_RealSpace         7.7269         1       7.7       4.2%
                 Gint_k   evaluate_vl_force         7.2026      1458    0.0049       3.9%
           Force_LCAO_kcal_fvnl_dbeta_k_new        0.75586         1      0.76      0.41%
            LCAO_Deepkscal_f_delta_hf_k_new         5.3777         1       5.4       2.9%
            LCAO_Deepks          cal_gdmx_k         32.735         1       33.       18.%
 ----------------------------------------------------------------------------------------

 CLASS_NAME---------|NAME---------------|MEMORY(MB)--------
                                         7.333e+04
        ORB_table_phi               Jl(x)          142.9
      ORB_table_alpha           Table_DSR          8.988
        ORB_table_phi         Table_SR&TR          3.674
  LocalOrbital_Charge      Density_Matrix          3.498
        allocate_pvpR        pvpR_reduced          3.498
       ORB_table_beta            Table_NR          1.939
        Grid_Meshcell        index2normal          1.546
        Grid_Meshcell         index2ucell          1.546
        init_meshball        meshball_pos          1.338
 ----------------------------------------------------------

 Start  Time  : Wed Apr  6 22:28:05 2022
 Finish Time  : Wed Apr  6 22:31:10 2022
 Total  Time  : 0 h 3 mins 5 secs 
