                                                                                     
                             WELCOME TO ABACUS                                       
                                                                                     
               'Atomic-orbital Based Ab-initio Computation at UStc'                  
                                                                                     
                     Website: http://abacus.ustc.edu.cn/                             
                                                                                     
    Version: Parallel, in development
    Processor Number is 16
    Start Time is Wed Apr  6 22:27:59 2022
                                                                                     
 ------------------------------------------------------------------------------------

 READING GENERAL INFORMATION
                           global_out_dir = OUT.ABACUS/
                           global_in_card = INPUT
                               pseudo_dir = 
                              orbital_dir = 
                              pseudo_type = auto
                                    DRANK = 1
                                    DSIZE = 16
                                   DCOLOR = 1
                                    GRANK = 1
                                    GSIZE = 1




 >>>>>>>>>>>>>>>>>>>>>>>>>>>>>>>>>>>>>>>>>>>>>>>>>>>>>>>>>>>>>>>>>>>>>>
 |                                                                    |
 | Reading atom information in unitcell:                              |
 | From the input file and the structure file we know the number of   |
 | different elments in this unitcell, then we list the detail        |
 | information for each element, especially the zeta and polar atomic |
 | orbital number for each element. The total atom number is counted. |
 | We calculate the nearest atom distance for each atom and show the  |
 | Cartesian and Direct coordinates for each atom. We list the file   |
 | address for atomic orbitals. The volume and the lattice vectors    |
 | in real and reciprocal space is also shown.                        |
 |                                                                    |
 <<<<<<<<<<<<<<<<<<<<<<<<<<<<<<<<<<<<<<<<<<<<<<<<<<<<<<<<<<<<<<<<<<<<<<




 READING UNITCELL INFORMATION
                                    ntype = 3
                 atom label for species 1 = Cs
                 atom label for species 2 = Pb
                 atom label for species 3 = I
                  lattice constant (Bohr) = 1.88973
              lattice constant (Angstrom) = 1

 READING ATOM TYPE 1
                               atom label = Cs
                      L=0, number of zeta = 4
                      L=1, number of zeta = 2
                      L=2, number of zeta = 1
             number of atom for this type = 1
                      start magnetization = FALSE

 READING ATOM TYPE 2
                               atom label = Pb
                      L=0, number of zeta = 2
                      L=1, number of zeta = 2
                      L=2, number of zeta = 2
             number of atom for this type = 1
                      start magnetization = FALSE

 READING ATOM TYPE 3
                               atom label = I
                      L=0, number of zeta = 2
                      L=1, number of zeta = 2
                      L=2, number of zeta = 2
             number of atom for this type = 3
                      start magnetization = FALSE
                      start magnetization = FALSE
                      start magnetization = FALSE

                        TOTAL ATOM NUMBER = 5

 CARTESIAN COORDINATES ( UNIT = 1.88973 Bohr ).
         atom                   x                   y                   z                 mag                  vx                  vy                  vz
     tauc_Cs1         3.155831861         3.195950776         3.158998281                   0                   0                   0                   0
     tauc_Pb1     0.0523798529996     0.0245819980056        6.2824734018                   0                   0                   0                   0
      tauc_I1      0.128178746003    0.00596038399594         3.156540016                   0                   0                   0                   0
      tauc_I2     0.0417359180047         3.247276764      0.106215495996                   0                   0                   0                   0
      tauc_I3         3.147756969     0.0444214460029     0.0100486959987                   0                   0                   0                   0


 READING ORBITAL FILE NAMES FOR LCAO
 orbital file: /root/Orb_SG15_DZP_E60_Standard_v1.0/Cs_gga_11au_60Ry_4s2p1d.orb
 orbital file: /root/Orb_SG15_DZP_E60_Standard_v1.0/Pb_gga_9au_60Ry_2s2p2d.orb
 orbital file: /root/Orb_SG15_DZP_E60_Standard_v1.0/I_gga_8au_60Ry_2s2p2d.orb

                          Volume (Bohr^3) = 1780.79088407
                             Volume (A^3) = 263.885667834

 Lattice vectors: (Cartesian coordinate: in unit of a_0)
        +6.4141449928                  +0                  +0
                   +0       +6.4141449928                  +0
                   +0                  +0       +6.4141449928
 Reciprocal vectors: (Cartesian coordinate: in unit of 2 pi/a_0)
      +0.155905424826                  +0                  +0
                   +0     +0.155905424826                  +0
                   +0                  -0     +0.155905424826




 >>>>>>>>>>>>>>>>>>>>>>>>>>>>>>>>>>>>>>>>>>>>>>>>>>>>>>>>>>>>>>>>>>>>>>
 |                                                                    |
 | Reading pseudopotentials files:                                    |
 | The pseudopotential file is in UPF format. The 'NC' indicates that |
 | the type of pseudopotential is 'norm conserving'. Functional of    |
 | exchange and correlation is decided by 4 given parameters in UPF   |
 | file.  We also read in the 'core correction' if there exists.      |
 | Also we can read the valence electrons number and the maximal      |
 | angular momentum used in this pseudopotential. We also read in the |
 | trail wave function, trail atomic density and local-pseudopotential|
 | on logrithmic grid. The non-local pseudopotential projector is also|
 | read in if there is any.                                           |
 |                                                                    |
 <<<<<<<<<<<<<<<<<<<<<<<<<<<<<<<<<<<<<<<<<<<<<<<<<<<<<<<<<<<<<<<<<<<<<<




                PAO radial cut off (Bohr) = 15

 Read in pseudopotential file is /root/SG15_ONCV_v1.0_upf/Cs_ONCV_PBE-1.0.upf
                     pseudopotential type = NC
                            functional Ex = PBE
                            functional Ec = 
                          functional GCEx = 
                          functional GCEc = 
                 nonlocal core correction = 0
                        valence electrons = 9
                                     lmax = 2
                           number of zeta = 0
                     number of projectors = 6
                           L of projector = 0
                           L of projector = 0
                           L of projector = 1
                           L of projector = 1
                           L of projector = 2
                           L of projector = 2

 XC functional updated to : 
                            functional Ex = PBE
                            functional Ec = 
                          functional GCEx = 
                          functional GCEc = 
                PAO radial cut off (Bohr) = 15

 Read in pseudopotential file is /root/SG15_ONCV_v1.0_upf/Pb_ONCV_PBE-1.0.upf
                     pseudopotential type = NC
                            functional Ex = PBE
                            functional Ec = 
                          functional GCEx = 
                          functional GCEc = 
                 nonlocal core correction = 0
                        valence electrons = 14
                                     lmax = 3
                           number of zeta = 0
                     number of projectors = 8
                           L of projector = 0
                           L of projector = 0
                           L of projector = 1
                           L of projector = 1
                           L of projector = 2
                           L of projector = 2
                           L of projector = 3
                           L of projector = 3

 XC functional updated to : 
                            functional Ex = PBE
                            functional Ec = 
                          functional GCEx = 
                          functional GCEc = 
                PAO radial cut off (Bohr) = 15

 Read in pseudopotential file is /root/SG15_ONCV_v1.0_upf/I_ONCV_PBE-1.0.upf
                     pseudopotential type = NC
                            functional Ex = PBE
                            functional Ec = 
                          functional GCEx = 
                          functional GCEc = 
                 nonlocal core correction = 0
                        valence electrons = 17
                                     lmax = 2
                           number of zeta = 0
                     number of projectors = 6
                           L of projector = 0
                           L of projector = 0
                           L of projector = 1
                           L of projector = 1
                           L of projector = 2
                           L of projector = 2

 XC functional updated to : 
                            functional Ex = PBE
                            functional Ec = 
                          functional GCEx = 
                          functional GCEc = 
     initial pseudo atomic orbital number = 0
                                   NLOCAL = 87

 SETUP THE ELECTRONS NUMBER
            electron number of element Cs = 9
      total electron number of element Cs = 9
            electron number of element Pb = 14
      total electron number of element Pb = 14
             electron number of element I = 17
       total electron number of element I = 51
                           occupied bands = 37
                                   NLOCAL = 87
                                   NBANDS = 47
                                   NBANDS = 47
 DONE : SETUP UNITCELL Time : 0.0564093743012 (SEC)





 >>>>>>>>>>>>>>>>>>>>>>>>>>>>>>>>>>>>>>>>>>>>>>>>>>>>>>>>>>>>>>>>>>>>>>
 |                                                                    |
 | Setup K-points                                                     |
 | We setup the k-points according to input parameters.               |
 | The reduced k-points are set according to symmetry operations.     |
 | We treat the spin as another set of k-points.                      |
 |                                                                    |
 <<<<<<<<<<<<<<<<<<<<<<<<<<<<<<<<<<<<<<<<<<<<<<<<<<<<<<<<<<<<<<<<<<<<<<





 SETUP K-POINTS
                                    nspin = 1
                   Input type of k points = Monkhorst-Pack(Gamma)
                                   nkstot = 64

  KPOINTS            DIRECT_X            DIRECT_Y            DIRECT_Z              WEIGHT
        1                   0                   0                   0            0.015625
        2                0.25                   0                   0            0.015625
        3                 0.5                   0                   0            0.015625
        4                0.75                   0                   0            0.015625
        5                   0                0.25                   0            0.015625
        6                0.25                0.25                   0            0.015625
        7                 0.5                0.25                   0            0.015625
        8                0.75                0.25                   0            0.015625
        9                   0                 0.5                   0            0.015625
       10                0.25                 0.5                   0            0.015625
       11                 0.5                 0.5                   0            0.015625
       12                0.75                 0.5                   0            0.015625
       13                   0                0.75                   0            0.015625
       14                0.25                0.75                   0            0.015625
       15                 0.5                0.75                   0            0.015625
       16                0.75                0.75                   0            0.015625
       17                   0                   0                0.25            0.015625
       18                0.25                   0                0.25            0.015625
       19                 0.5                   0                0.25            0.015625
       20                0.75                   0                0.25            0.015625
       21                   0                0.25                0.25            0.015625
       22                0.25                0.25                0.25            0.015625
       23                 0.5                0.25                0.25            0.015625
       24                0.75                0.25                0.25            0.015625
       25                   0                 0.5                0.25            0.015625
       26                0.25                 0.5                0.25            0.015625
       27                 0.5                 0.5                0.25            0.015625
       28                0.75                 0.5                0.25            0.015625
       29                   0                0.75                0.25            0.015625
       30                0.25                0.75                0.25            0.015625
       31                 0.5                0.75                0.25            0.015625
       32                0.75                0.75                0.25            0.015625
       33                   0                   0                 0.5            0.015625
       34                0.25                   0                 0.5            0.015625
       35                 0.5                   0                 0.5            0.015625
       36                0.75                   0                 0.5            0.015625
       37                   0                0.25                 0.5            0.015625
       38                0.25                0.25                 0.5            0.015625
       39                 0.5                0.25                 0.5            0.015625
       40                0.75                0.25                 0.5            0.015625
       41                   0                 0.5                 0.5            0.015625
       42                0.25                 0.5                 0.5            0.015625
       43                 0.5                 0.5                 0.5            0.015625
       44                0.75                 0.5                 0.5            0.015625
       45                   0                0.75                 0.5            0.015625
       46                0.25                0.75                 0.5            0.015625
       47                 0.5                0.75                 0.5            0.015625
       48                0.75                0.75                 0.5            0.015625
       49                   0                   0                0.75            0.015625
       50                0.25                   0                0.75            0.015625
       51                 0.5                   0                0.75            0.015625
       52                0.75                   0                0.75            0.015625
       53                   0                0.25                0.75            0.015625
       54                0.25                0.25                0.75            0.015625
       55                 0.5                0.25                0.75            0.015625
       56                0.75                0.25                0.75            0.015625
       57                   0                 0.5                0.75            0.015625
       58                0.25                 0.5                0.75            0.015625
       59                 0.5                 0.5                0.75            0.015625
       60                0.75                 0.5                0.75            0.015625
       61                   0                0.75                0.75            0.015625
       62                0.25                0.75                0.75            0.015625
       63                 0.5                0.75                0.75            0.015625
       64                0.75                0.75                0.75            0.015625

           k-point number in this process = 64
       minimum distributed K point number = 64

  KPOINTS         CARTESIAN_X         CARTESIAN_Y         CARTESIAN_Z              WEIGHT
        1                   0                   0                   0             0.03125
        2     0.0389763562066                   0                   0             0.03125
        3     0.0779527124132                   0                   0             0.03125
        4       0.11692906862                   0                   0             0.03125
        5                   0     0.0389763562066                   0             0.03125
        6     0.0389763562066     0.0389763562066                   0             0.03125
        7     0.0779527124132     0.0389763562066                   0             0.03125
        8       0.11692906862     0.0389763562066                   0             0.03125
        9                   0     0.0779527124132                   0             0.03125
       10     0.0389763562066     0.0779527124132                   0             0.03125
       11     0.0779527124132     0.0779527124132                   0             0.03125
       12       0.11692906862     0.0779527124132                   0             0.03125
       13                   0       0.11692906862                   0             0.03125
       14     0.0389763562066       0.11692906862                   0             0.03125
       15     0.0779527124132       0.11692906862                   0             0.03125
       16       0.11692906862       0.11692906862                   0             0.03125
       17                   0                   0     0.0389763562066             0.03125
       18     0.0389763562066                   0     0.0389763562066             0.03125
       19     0.0779527124132                   0     0.0389763562066             0.03125
       20       0.11692906862                   0     0.0389763562066             0.03125
       21                   0     0.0389763562066     0.0389763562066             0.03125
       22     0.0389763562066     0.0389763562066     0.0389763562066             0.03125
       23     0.0779527124132     0.0389763562066     0.0389763562066             0.03125
       24       0.11692906862     0.0389763562066     0.0389763562066             0.03125
       25                   0     0.0779527124132     0.0389763562066             0.03125
       26     0.0389763562066     0.0779527124132     0.0389763562066             0.03125
       27     0.0779527124132     0.0779527124132     0.0389763562066             0.03125
       28       0.11692906862     0.0779527124132     0.0389763562066             0.03125
       29                   0       0.11692906862     0.0389763562066             0.03125
       30     0.0389763562066       0.11692906862     0.0389763562066             0.03125
       31     0.0779527124132       0.11692906862     0.0389763562066             0.03125
       32       0.11692906862       0.11692906862     0.0389763562066             0.03125
       33                   0                   0     0.0779527124132             0.03125
       34     0.0389763562066                   0     0.0779527124132             0.03125
       35     0.0779527124132                   0     0.0779527124132             0.03125
       36       0.11692906862                   0     0.0779527124132             0.03125
       37                   0     0.0389763562066     0.0779527124132             0.03125
       38     0.0389763562066     0.0389763562066     0.0779527124132             0.03125
       39     0.0779527124132     0.0389763562066     0.0779527124132             0.03125
       40       0.11692906862     0.0389763562066     0.0779527124132             0.03125
       41                   0     0.0779527124132     0.0779527124132             0.03125
       42     0.0389763562066     0.0779527124132     0.0779527124132             0.03125
       43     0.0779527124132     0.0779527124132     0.0779527124132             0.03125
       44       0.11692906862     0.0779527124132     0.0779527124132             0.03125
       45                   0       0.11692906862     0.0779527124132             0.03125
       46     0.0389763562066       0.11692906862     0.0779527124132             0.03125
       47     0.0779527124132       0.11692906862     0.0779527124132             0.03125
       48       0.11692906862       0.11692906862     0.0779527124132             0.03125
       49                   0                   0       0.11692906862             0.03125
       50     0.0389763562066                   0       0.11692906862             0.03125
       51     0.0779527124132                   0       0.11692906862             0.03125
       52       0.11692906862                   0       0.11692906862             0.03125
       53                   0     0.0389763562066       0.11692906862             0.03125
       54     0.0389763562066     0.0389763562066       0.11692906862             0.03125
       55     0.0779527124132     0.0389763562066       0.11692906862             0.03125
       56       0.11692906862     0.0389763562066       0.11692906862             0.03125
       57                   0     0.0779527124132       0.11692906862             0.03125
       58     0.0389763562066     0.0779527124132       0.11692906862             0.03125
       59     0.0779527124132     0.0779527124132       0.11692906862             0.03125
       60       0.11692906862     0.0779527124132       0.11692906862             0.03125
       61                   0       0.11692906862       0.11692906862             0.03125
       62     0.0389763562066       0.11692906862       0.11692906862             0.03125
       63     0.0779527124132       0.11692906862       0.11692906862             0.03125
       64       0.11692906862       0.11692906862       0.11692906862             0.03125

  KPOINTS            DIRECT_X            DIRECT_Y            DIRECT_Z              WEIGHT
        1                   0                   0                   0             0.03125
        2                0.25                   0                   0             0.03125
        3                 0.5                   0                   0             0.03125
        4                0.75                   0                   0             0.03125
        5                   0                0.25                   0             0.03125
        6                0.25                0.25                   0             0.03125
        7                 0.5                0.25                   0             0.03125
        8                0.75                0.25                   0             0.03125
        9                   0                 0.5                   0             0.03125
       10                0.25                 0.5                   0             0.03125
       11                 0.5                 0.5                   0             0.03125
       12                0.75                 0.5                   0             0.03125
       13                   0                0.75                   0             0.03125
       14                0.25                0.75                   0             0.03125
       15                 0.5                0.75                   0             0.03125
       16                0.75                0.75                   0             0.03125
       17                   0                   0                0.25             0.03125
       18                0.25                   0                0.25             0.03125
       19                 0.5                   0                0.25             0.03125
       20                0.75                   0                0.25             0.03125
       21                   0                0.25                0.25             0.03125
       22                0.25                0.25                0.25             0.03125
       23                 0.5                0.25                0.25             0.03125
       24                0.75                0.25                0.25             0.03125
       25                   0                 0.5                0.25             0.03125
       26                0.25                 0.5                0.25             0.03125
       27                 0.5                 0.5                0.25             0.03125
       28                0.75                 0.5                0.25             0.03125
       29                   0                0.75                0.25             0.03125
       30                0.25                0.75                0.25             0.03125
       31                 0.5                0.75                0.25             0.03125
       32                0.75                0.75                0.25             0.03125
       33                   0                   0                 0.5             0.03125
       34                0.25                   0                 0.5             0.03125
       35                 0.5                   0                 0.5             0.03125
       36                0.75                   0                 0.5             0.03125
       37                   0                0.25                 0.5             0.03125
       38                0.25                0.25                 0.5             0.03125
       39                 0.5                0.25                 0.5             0.03125
       40                0.75                0.25                 0.5             0.03125
       41                   0                 0.5                 0.5             0.03125
       42                0.25                 0.5                 0.5             0.03125
       43                 0.5                 0.5                 0.5             0.03125
       44                0.75                 0.5                 0.5             0.03125
       45                   0                0.75                 0.5             0.03125
       46                0.25                0.75                 0.5             0.03125
       47                 0.5                0.75                 0.5             0.03125
       48                0.75                0.75                 0.5             0.03125
       49                   0                   0                0.75             0.03125
       50                0.25                   0                0.75             0.03125
       51                 0.5                   0                0.75             0.03125
       52                0.75                   0                0.75             0.03125
       53                   0                0.25                0.75             0.03125
       54                0.25                0.25                0.75             0.03125
       55                 0.5                0.25                0.75             0.03125
       56                0.75                0.25                0.75             0.03125
       57                   0                 0.5                0.75             0.03125
       58                0.25                 0.5                0.75             0.03125
       59                 0.5                 0.5                0.75             0.03125
       60                0.75                 0.5                0.75             0.03125
       61                   0                0.75                0.75             0.03125
       62                0.25                0.75                0.75             0.03125
       63                 0.5                0.75                0.75             0.03125
       64                0.75                0.75                0.75             0.03125
 DONE : INIT K-POINTS Time : 0.0583062479684 (SEC)





 >>>>>>>>>>>>>>>>>>>>>>>>>>>>>>>>>>>>>>>>>>>>>>>>>>>>>>>>>>>>>>>>>>>>>>
 |                                                                    |
 | Setup numerical orbitals:                                          |
 | This part setup: numerical atomic orbitals, non-local projectors   |
 | and neutral potential (1D). The atomic orbitals information        |
 | including the radius, angular momentum and zeta number.            |
 | The neutral potential is the sum of local part of pseudopotential  |
 | and potential given by atomic charge, they will cancel out beyond  |
 | a certain radius cutoff, because the Z/r character.                |
 |                                                                    |
 <<<<<<<<<<<<<<<<<<<<<<<<<<<<<<<<<<<<<<<<<<<<<<<<<<<<<<<<<<<<<<<<<<<<<<





 SETUP ONE DIMENSIONAL ORBITALS/POTENTIAL
                        delta k  (1/Bohr) = 0.01
                        delta r    (Bohr) = 0.01
                        dr_uniform (Bohr) = 0.001
                        rmax       (Bohr) = 30
                                    kmesh = 779
      ORBITAL  L  N      nr      dr    RCUT  CHECK_UNIT    NEW_UNIT
            1  0  0    1101    0.01      11           1           1
            2  0  1    1101    0.01      11           1           1
            3  0  2    1101    0.01      11           1           1
            4  0  3    1101    0.01      11           1           1
            5  1  0    1101    0.01      11           1           1
            6  1  1    1101    0.01      11           1           1
            7  2  0    1101    0.01      11           1           1
      ORBITAL  L  N      nr      dr    RCUT  CHECK_UNIT    NEW_UNIT
            1  0  0     901    0.01       9           1           1
            2  0  1     901    0.01       9           1           1
            3  1  0     901    0.01       9           1           1
            4  1  1     901    0.01       9           1           1
            5  2  0     901    0.01       9           1           1
            6  2  1     901    0.01       9           1           1
      ORBITAL  L  N      nr      dr    RCUT  CHECK_UNIT    NEW_UNIT
            1  0  0     801    0.01       8           1           1
            2  0  1     801    0.01       8           1           1
            3  1  0     801    0.01       8           1           1
            4  1  1     801    0.01       8           1           1
            5  2  0     801    0.01       8           1           1
            6  2  1     801    0.01       8           1           1
   DESCRIPTOR  L  N      nr      dr    RCUT  CHECK_UNIT    NEW_UNIT
            1  0  0     505    0.01    5.04        6.33           1
            2  0  1     505    0.01    5.04        1.58           1
            3  0  2     505    0.01    5.04       0.704           1
            4  0  3     505    0.01    5.04       0.396           1
            5  0  4     505    0.01    5.04       0.253           1
            6  0  5     505    0.01    5.04       0.176           1
            7  0  6     505    0.01    5.04       0.129           1
            8  0  7     505    0.01    5.04       0.099           1
            9  0  8     505    0.01    5.04      0.0782           1
           10  0  9     505    0.01    5.04      0.0633           1
           11  0 10     505    0.01    5.04      0.0524           1
           12  0 11     505    0.01    5.04       0.044           1
           13  0 12     505    0.01    5.04      0.0375           1
           14  0 13     505    0.01    5.04      0.0323           1
           15  0 14     505    0.01    5.04      0.0282           1
           16  1  0     505    0.01    5.04        2.95           1
           17  1  1     505    0.01    5.04        1.03           1
           18  1  2     505    0.01    5.04       0.521           1
           19  1  3     505    0.01    5.04       0.314           1
           20  1  4     505    0.01    5.04        0.21           1
           21  1  5     505    0.01    5.04        0.15           1
           22  1  6     505    0.01    5.04       0.113           1
           23  1  7     505    0.01    5.04      0.0878           1
           24  1  8     505    0.01    5.04      0.0703           1
           25  1  9     505    0.01    5.04      0.0575           1
           26  1 10     505    0.01    5.04      0.0479           1
           27  1 11     505    0.01    5.04      0.0406           1
           28  1 12     505    0.01    5.04      0.0348           1
           29  1 13     505    0.01    5.04      0.0302           1
           30  1 14     505    0.01    5.04      0.0264           1
           31  2  0     505    0.01    5.04        1.71           1
           32  2  1     505    0.01    5.04       0.728           1
           33  2  2     505    0.01    5.04       0.403           1
           34  2  3     505    0.01    5.04       0.256           1
           35  2  4     505    0.01    5.04       0.177           1
           36  2  5     505    0.01    5.04        0.13           1
           37  2  6     505    0.01    5.04      0.0994           1
           38  2  7     505    0.01    5.04      0.0785           1
           39  2  8     505    0.01    5.04      0.0635           1
           40  2  9     505    0.01    5.04      0.0525           1
           41  2 10     505    0.01    5.04      0.0441           1
           42  2 11     505    0.01    5.04      0.0376           1
           43  2 12     505    0.01    5.04      0.0324           1
           44  2 13     505    0.01    5.04      0.0282           1
           45  2 14     505    0.01    5.04      0.0248           1
 max number of nonlocal projetors among all species is 8

 SETUP THE TWO-CENTER INTEGRATION TABLES

 SETUP THE DIVISION OF H/S MATRIX
 divide the H&S matrix using 2D block algorithms.
                                     nb2d = 1
                  trace_loc_row dimension = 87
                  trace_loc_col dimension = 87
                                     nloc = 484
 Initialize the descriptor index for DeePKS (lcao line)
 lmax of descriptor = 2
 nmax of descriptor= 15
 total basis (all atoms) for descriptor= 
 Type 1 number_of_atoms 1
 Type 2 number_of_atoms 1
 Type 3 number_of_atoms 3
 descriptors_per_atom 135
 total_descriptors 675




 >>>>>>>>>>>>>>>>>>>>>>>>>>>>>>>>>>>>>>>>>>>>>>>>>>>>>>>>>>>>>>>>>>>>>>
 |                                                                    |
 | Setup plane waves:                                                 |
 | Use the energy cutoff and the lattice vectors to generate the      |
 | dimensions of FFT grid. The number of FFT grid on each processor   |
 | is 'nrxx'. The number of plane wave basis in reciprocal space is   |
 | different for charege/potential and wave functions. We also set    |
 | the 'sticks' for the parallel of FFT.                              |
 |                                                                    |
 <<<<<<<<<<<<<<<<<<<<<<<<<<<<<<<<<<<<<<<<<<<<<<<<<<<<<<<<<<<<<<<<<<<<<<





 SETUP THE PLANE WAVE BASIS
     energy cutoff for wavefunc (unit:Ry) = 60
            [fft grid for wave functions] = 60, 60, 60
          [fft grid for charge/potential] = 60, 60, 60
                      [fft grid division] = 2, 2, 2
      [big fft grid for charge/potential] = 30, 30, 30
                                     nbxx = 1800
                                     nrxx = 14400

 SETUP PLANE WAVES FOR CHARGE/POTENTIAL
                    number of plane waves = 111875
                         number of sticks = 2801

 SETUP PLANE WAVES FOR WAVE FUNCTIONS
                    number of plane waves = 17845
                         number of sticks = 829

 PARALLEL PW FOR CHARGE/POTENTIAL
     PROC   COLUMNS(POT)             PW
        1            183           7171
        2            183           7171
        3            183           7171
        4            183           7171
        5            183           7171
        6            182           7168
        7            182           7168
        8            182           7168
        9            182           7168
       10            184           7170
       11            184           7170
       12            184           7170
       13            183           7169
       14            183           7169
       15            120           5750
       16            120           5750
 --------------- sum -------------------
       16           2801         111875

 PARALLEL PW FOR WAVE FUNCTIONS
     PROC     COLUMNS(W)             PW
        1             51           1111
        2             51           1111
        3             52           1114
        4             52           1116
        5             52           1112
        6             52           1118
        7             51           1117
        8             52           1114
        9             53           1115
       10             53           1111
       11             52           1112
       12             51           1119
       13             52           1114
       14             53           1123
       15             52           1116
       16             50           1122
 --------------- sum -------------------
       16            829          17845

 SETUP COORDINATES OF PLANE WAVES
              number of total plane waves = 111875

 SETUP COORDINATES OF PLANE WAVES
                            number of |g| = 678
                                  max |g| = 21.7
                                  min |g| = 0
 DONE : INIT PLANEWAVE Time : 20.3 (SEC)

 DONE : INIT CHARGE Time : 20.3 (SEC)

 DONE : INIT POTENTIAL Time : 20.3 (SEC)

                                start_pot = atomic

 -------------------------------------------
 SELF-CONSISTENT
 -------------------------------------------




 >>>>>>>>>>>>>>>>>>>>>>>>>>>>>>>>>>>>>>>>>>>>>>>>>>>>>>>>>>>>>>>>>>>>>>
 |                                                                    |
 | Search adjacent atoms:                                             |
 | Set the adjacent atoms for each atom and set the periodic boundary |
 | condition for the atoms on real space FFT grid. For k-dependent    |
 | algorithm, we also need to set the sparse H and S matrix element   |
 | for each atom.                                                     |
 |                                                                    |
 <<<<<<<<<<<<<<<<<<<<<<<<<<<<<<<<<<<<<<<<<<<<<<<<<<<<<<<<<<<<<<<<<<<<<<





 SETUP SEARCHING RADIUS FOR PROGRAM TO SEARCH ADJACENT ATOMS
                  longest orb rcut (Bohr) = 11
   longest nonlocal projector rcut (Bohr) = 3.68
              searching radius is (Bohr)) = 29.4
         searching radius unit is (Bohr)) = 1.89

 SETUP EXTENDED REAL SPACE GRID FOR GRID INTEGRATION
                        [real space grid] = 60, 60, 60
               [big cell numbers in grid] = 30, 30, 30
           [meshcell numbers in big cell] = 2, 2, 2
                      [extended fft grid] = 28, 28, 28
              [dimension of extened grid] = 87, 87, 87
                            UnitCellTotal = 27
              Atom number in sub-FFT-grid = 5
    Local orbitals number in sub-FFT-grid = 87
                                      nnr = 9740
                                     nnrg = 92583

 SETUP ARRAY FOR EXTRA WAVE FUNCTIONS
                                     daug = 0
                                nnrg_last = 0
                                 nnrg_now = 92583

 LCAO ALGORITHM ------------- ELEC =    1 --------------------------------
 Memory of pvpR : 0.706 MB

 Density error is 0.0441672711756

       Energy                       Rydberg                            eV
   E_KohnSham                -761.250966316                -10357.3507499
     E_Harris                -761.397299854                -10359.3417198
      E_Fermi               +0.269102335289                +3.66132510504

 LCAO ALGORITHM ------------- ELEC =    2 --------------------------------
 Memory of pvpR : 0.706352233887 MB

 Density error is 0.0174446331503

       Energy                       Rydberg                            eV
   E_KohnSham                 -761.31185598                -10358.1791963
     E_Harris                -761.329259361                -10358.4159814
      E_Fermi               +0.290994819916                +3.95918763934

 LCAO ALGORITHM ------------- ELEC =    3 --------------------------------
 Memory of pvpR : 0.706352233887 MB

 Density error is 0.00818682591929

       Energy                       Rydberg                            eV
   E_KohnSham                -761.318095065                -10358.2640834
     E_Harris                -761.321358888                  -10358.30849
      E_Fermi               +0.293248393007                +3.98984907424

 LCAO ALGORITHM ------------- ELEC =    4 --------------------------------
 Memory of pvpR : 0.706352233887 MB

 Density error is 0.00153497653153

       Energy                       Rydberg                            eV
   E_KohnSham                -761.320136047                -10358.2918524
     E_Harris                -761.320110431                -10358.2915039
      E_Fermi               +0.295683058196                +4.02297439353

 LCAO ALGORITHM ------------- ELEC =    5 --------------------------------
 Memory of pvpR : 0.706352233887 MB

 Density error is 0.000613050828108

       Energy                       Rydberg                            eV
   E_KohnSham                 -761.31939189                -10358.2817276
     E_Harris                 -761.31938683                -10358.2816588
      E_Fermi               +0.295544599525                +4.02109056667

 LCAO ALGORITHM ------------- ELEC =    6 --------------------------------
 Memory of pvpR : 0.706352233887 MB

 Density error is 6.73508583392e-05

       Energy                       Rydberg                            eV
   E_KohnSham                -761.319502043                -10358.2832263
     E_Harris                -761.319502302                -10358.2832298
      E_Fermi               +0.295294917987                +4.01769347507

 LCAO ALGORITHM ------------- ELEC =    7 --------------------------------
 Memory of pvpR : 0.706352233887 MB

 Density error is 1.72235436675e-05

       Energy                       Rydberg                            eV
   E_KohnSham                -761.319523792                -10358.2835222
     E_Harris                -761.319523803                -10358.2835224
      E_Fermi               +0.295363544781                 +4.0186271905

 LCAO ALGORITHM ------------- ELEC =    8 --------------------------------
 Memory of pvpR : 0.706352233887 MB

 Density error is 4.59938970836e-06

       Energy                       Rydberg                            eV
   E_KohnSham                -761.319509779                -10358.2833316
     E_Harris                -761.319509779                -10358.2833316
      E_Fermi               +0.295396931294                +4.01908143731

 LCAO ALGORITHM ------------- ELEC =    9 --------------------------------
 Memory of pvpR : 0.706352233887 MB

 Density error is 9.76985006214e-07

       Energy                       Rydberg                            eV
   E_KohnSham                -761.319510291                -10358.2833385
     E_Harris                -761.319510292                -10358.2833385
      E_Fermi               +0.295397962234                +4.01909546397

 LCAO ALGORITHM ------------- ELEC =   10 --------------------------------
 Memory of pvpR : 0.706352233887 MB

 Density error is 3.80956514719e-07

       Energy                       Rydberg                            eV
   E_KohnSham                -761.319509449                -10358.2833271
     E_Harris                -761.319509449                -10358.2833271
       E_band                -102.548536153                -1395.24441324
   E_one_elec                -518.348140441                 -7052.4882577
    E_Hartree                +260.336487192                +3542.05962312
         E_xc                -80.6818882156                -1097.73340513
      E_Ewald                -422.805856631                -5752.56879796
      E_demet                            +0                            +0
      E_descf                            +0                            +0
     E_efield                            +0                            +0
        E_exx                            +0                            +0
     E_DeePKS            -0.000748651437106              -0.0101859253605
      E_Fermi               +0.295397336449                +4.01908694973

 charge density convergence is achieved
 final etot is -10358.2833271 eV

 STATE ENERGY(eV) AND OCCUPATIONS    NSPIN == 1
 1/64 kpoint (Cartesian) = 0 0 0 (879 pws)
       1       -40.1255      0.0312500
       2       -40.1189      0.0312500
       3       -40.0845      0.0312500
       4       -40.0409      0.0312500
       5       -40.0398      0.0312500
       6       -40.0350      0.0312500
       7       -40.0344      0.0312500
       8       -40.0052      0.0312500
       9       -40.0021      0.0312500
      10       -39.8444      0.0312500
      11       -39.8418      0.0312500
      12       -39.8405      0.0312500
      13       -39.8382      0.0312500
      14       -39.8153      0.0312500
      15       -39.8128      0.0312500
      16       -17.4147      0.0312500
      17       -12.7207      0.0312500
      18       -12.7073      0.0312500
      19       -12.5365      0.0312500
      20       -12.5349      0.0312500
      21       -12.5331      0.0312500
      22       -7.63503      0.0312500
      23       -7.03337      0.0312500
      24       -7.00925      0.0312500
      25       -4.54301      0.0312500
      26       -4.54201      0.0312500
      27       -4.54179      0.0312500
      28       -2.50019      0.0312500
      29       0.434138      0.0312500
      30       0.473644      0.0312500
      31       0.492622      0.0312500
      32        2.81553      0.0312500
      33        2.81902      0.0312500
      34        2.83148      0.0312500
      35        2.91912      0.0312500
      36        2.92524      0.0312500
      37        2.92721      0.0312500
      38        7.52609        0.00000
      39        8.74214        0.00000
      40        8.74847        0.00000
      41        9.15529        0.00000
      42        9.27063        0.00000
      43        9.47464        0.00000
      44        9.54944        0.00000
      45        9.72033        0.00000
      46        9.73627        0.00000
      47        13.9231        0.00000

 2/64 kpoint (Cartesian) = 0.0389764 0.00000 0.00000 (890 pws)
       1       -40.1248      0.0312500
       2       -40.1189      0.0312500
       3       -40.0845      0.0312500
       4       -40.0410      0.0312500
       5       -40.0398      0.0312500
       6       -40.0350      0.0312500
       7       -40.0344      0.0312500
       8       -40.0052      0.0312500
       9       -40.0021      0.0312500
      10       -39.8444      0.0312500
      11       -39.8418      0.0312500
      12       -39.8405      0.0312500
      13       -39.8382      0.0312500
      14       -39.8153      0.0312500
      15       -39.8128      0.0312500
      16       -17.4131      0.0312500
      17       -12.7179      0.0312500
      18       -12.7065      0.0312500
      19       -12.5365      0.0312500
      20       -12.5350      0.0312500
      21       -12.5333      0.0312500
      22       -7.57498      0.0312500
      23       -7.11144      0.0312500
      24       -7.01147      0.0312500
      25       -4.54143      0.0312500
      26       -4.54049      0.0312500
      27       -4.53703      0.0312500
      28       -2.79331      0.0312500
      29       0.482264      0.0312500
      30       0.539386      0.0312500
      31        1.30866      0.0312500
      32        2.71957      0.0312500
      33        2.73149      0.0312500
      34        2.76692      0.0312500
      35        2.86218      0.0312500
      36        2.87407      0.0312500
      37        2.88551      0.0312500
      38        7.78344        0.00000
      39        8.10332        0.00000
      40        8.99445        0.00000
      41        9.10976        0.00000
      42        9.13915        0.00000
      43        9.38301        0.00000
      44        9.66028        0.00000
      45        9.85922        0.00000
      46        9.88513        0.00000
      47        12.5834        0.00000

 3/64 kpoint (Cartesian) = 0.0779527 0.00000 0.00000 (890 pws)
       1       -40.1242      0.0312500
       2       -40.1190      0.0312500
       3       -40.0845      0.0312500
       4       -40.0410      0.0312500
       5       -40.0399      0.0312500
       6       -40.0350      0.0312500
       7       -40.0344      0.0312500
       8       -40.0052      0.0312500
       9       -40.0021      0.0312500
      10       -39.8444      0.0312500
      11       -39.8418      0.0312500
      12       -39.8405      0.0312500
      13       -39.8382      0.0312500
      14       -39.8153      0.0312500
      15       -39.8128      0.0312500
      16       -17.4125      0.0312500
      17       -12.7156      0.0312500
      18       -12.7052      0.0312500
      19       -12.5365      0.0312500
      20       -12.5352      0.0312500
      21       -12.5334      0.0312500
      22       -7.48022      0.0312500
      23       -7.22743      0.0312500
      24       -7.01078      0.0312500
      25       -4.53984      0.0312500
      26       -4.53895      0.0312500
      27       -4.53245      0.0312500
      28       -3.01235      0.0312500
      29       0.533960      0.0312500
      30       0.592001      0.0312500
      31        2.15193      0.0312500
      32        2.61117      0.0312500
      33        2.62362      0.0312500
      34        2.70556      0.0312500
      35        2.83793      0.0312500
      36        2.85047      0.0312500
      37        3.07659      0.0312500
      38        6.12204        0.00000
      39        8.87734        0.00000
      40        9.09583        0.00000
      41        9.20592        0.00000
      42        9.52422        0.00000
      43        9.70073        0.00000
      44        9.74138        0.00000
      45        10.3213        0.00000
      46        10.3475        0.00000
      47        10.4652        0.00000

 4/64 kpoint (Cartesian) = 0.116929 0.00000 0.00000 (879 pws)
       1       -40.1248      0.0312500
       2       -40.1189      0.0312500
       3       -40.0845      0.0312500
       4       -40.0410      0.0312500
       5       -40.0398      0.0312500
       6       -40.0350      0.0312500
       7       -40.0344      0.0312500
       8       -40.0052      0.0312500
       9       -40.0021      0.0312500
      10       -39.8444      0.0312500
      11       -39.8418      0.0312500
      12       -39.8405      0.0312500
      13       -39.8382      0.0312500
      14       -39.8153      0.0312500
      15       -39.8128      0.0312500
      16       -17.4131      0.0312500
      17       -12.7179      0.0312500
      18       -12.7065      0.0312500
      19       -12.5365      0.0312500
      20       -12.5350      0.0312500
      21       -12.5333      0.0312500
      22       -7.57498      0.0312500
      23       -7.11144      0.0312500
      24       -7.01147      0.0312500
      25       -4.54143      0.0312500
      26       -4.54049      0.0312500
      27       -4.53703      0.0312500
      28       -2.79331      0.0312500
      29       0.482264      0.0312500
      30       0.539386      0.0312500
      31        1.30866      0.0312500
      32        2.71957      0.0312500
      33        2.73149      0.0312500
      34        2.76692      0.0312500
      35        2.86218      0.0312500
      36        2.87407      0.0312500
      37        2.88551      0.0312500
      38        7.78344        0.00000
      39        8.10332        0.00000
      40        8.99445        0.00000
      41        9.10976        0.00000
      42        9.13915        0.00000
      43        9.38301        0.00000
      44        9.66028        0.00000
      45        9.85922        0.00000
      46        9.88513        0.00000
      47        12.5834        0.00000

 5/64 kpoint (Cartesian) = 0.00000 0.0389764 0.00000 (886 pws)
       1       -40.1254      0.0312500
       2       -40.1188      0.0312500
       3       -40.0842      0.0312500
       4       -40.0409      0.0312500
       5       -40.0398      0.0312500
       6       -40.0350      0.0312500
       7       -40.0344      0.0312500
       8       -40.0052      0.0312500
       9       -40.0021      0.0312500
      10       -39.8444      0.0312500
      11       -39.8418      0.0312500
      12       -39.8405      0.0312500
      13       -39.8382      0.0312500
      14       -39.8153      0.0312500
      15       -39.8128      0.0312500
      16       -17.4121      0.0312500
      17       -12.7206      0.0312500
      18       -12.7040      0.0312500
      19       -12.5367      0.0312500
      20       -12.5349      0.0312500
      21       -12.5332      0.0312500
      22       -7.57557      0.0312500
      23       -7.08994      0.0312500
      24       -7.03186      0.0312500
      25       -4.54101      0.0312500
      26       -4.54019      0.0312500
      27       -4.53772      0.0312500
      28       -2.78530      0.0312500
      29       0.464316      0.0312500
      30       0.498527      0.0312500
      31        1.34386      0.0312500
      32        2.68248      0.0312500
      33        2.72795      0.0312500
      34        2.80299      0.0312500
      35        2.84197      0.0312500
      36        2.87565      0.0312500
      37        2.91762      0.0312500
      38        7.76923        0.00000
      39        8.08469        0.00000
      40        8.99117        0.00000
      41        9.10415        0.00000
      42        9.28870        0.00000
      43        9.40789        0.00000
      44        9.65880        0.00000
      45        9.84813        0.00000
      46        9.87774        0.00000
      47        12.6007        0.00000

 6/64 kpoint (Cartesian) = 0.0389764 0.0389764 0.00000 (887 pws)
       1       -40.1248      0.0312500
       2       -40.1189      0.0312500
       3       -40.0842      0.0312500
       4       -40.0410      0.0312500
       5       -40.0398      0.0312500
       6       -40.0350      0.0312500
       7       -40.0344      0.0312500
       8       -40.0052      0.0312500
       9       -40.0022      0.0312500
      10       -39.8444      0.0312500
      11       -39.8418      0.0312500
      12       -39.8406      0.0312500
      13       -39.8382      0.0312500
      14       -39.8153      0.0312500
      15       -39.8128      0.0312500
      16       -17.4119      0.0312500
      17       -12.7179      0.0312500
      18       -12.7032      0.0312500
      19       -12.5367      0.0312500
      20       -12.5350      0.0312500
      21       -12.5334      0.0312500
      22       -7.51730      0.0312500
      23       -7.12560      0.0312500
      24       -7.06626      0.0312500
      25       -4.54151      0.0312500
      26       -4.53905      0.0312500
      27       -4.53665      0.0312500
      28       -3.06155      0.0312500
      29       0.510549      0.0312500
      30        1.19083      0.0312500
      31        1.52636      0.0312500
      32        2.39855      0.0312500
      33        2.67228      0.0312500
      34        2.74399      0.0312500
      35        2.82206      0.0312500
      36        2.90753      0.0312500
      37        3.06137      0.0312500
      38        7.60117        0.00000
      39        7.71005        0.00000
      40        8.50262        0.00000
      41        9.23061        0.00000
      42        9.27917        0.00000
      43        9.35291        0.00000
      44        9.88128        0.00000
      45        9.93980        0.00000
      46        10.0954        0.00000
      47        11.9044        0.00000

 7/64 kpoint (Cartesian) = 0.0779527 0.0389764 0.00000 (882 pws)
       1       -40.1242      0.0312500
       2       -40.1190      0.0312500
       3       -40.0842      0.0312500
       4       -40.0410      0.0312500
       5       -40.0399      0.0312500
       6       -40.0350      0.0312500
       7       -40.0344      0.0312500
       8       -40.0052      0.0312500
       9       -40.0022      0.0312500
      10       -39.8444      0.0312500
      11       -39.8418      0.0312500
      12       -39.8406      0.0312500
      13       -39.8382      0.0312500
      14       -39.8153      0.0312500
      15       -39.8128      0.0312500
      16       -17.4119      0.0312500
      17       -12.7156      0.0312500
      18       -12.7019      0.0312500
      19       -12.5367      0.0312500
      20       -12.5352      0.0312500
      21       -12.5335      0.0312500
      22       -7.42197      0.0312500
      23       -7.22662      0.0312500
      24       -7.07280      0.0312500
      25       -4.54113      0.0312500
      26       -4.53769      0.0312500
      27       -4.53670      0.0312500
      28       -3.27641      0.0312500
      29       0.567307      0.0312500
      30        1.40958      0.0312500
      31        2.03379      0.0312500
      32        2.44046      0.0312500
      33        2.58825      0.0312500
      34        2.68559      0.0312500
      35        2.79941      0.0312500
      36        3.08339      0.0312500
      37        3.20780      0.0312500
      38        5.98686        0.00000
      39        7.52449        0.00000
      40        9.08970        0.00000
      41        9.22185        0.00000
      42        9.60072        0.00000
      43        9.70284        0.00000
      44        9.95531        0.00000
      45        10.2339        0.00000
      46        10.2454        0.00000
      47        10.6959        0.00000

 8/64 kpoint (Cartesian) = 0.116929 0.0389764 0.00000 (877 pws)
       1       -40.1248      0.0312500
       2       -40.1189      0.0312500
       3       -40.0842      0.0312500
       4       -40.0410      0.0312500
       5       -40.0398      0.0312500
       6       -40.0350      0.0312500
       7       -40.0344      0.0312500
       8       -40.0052      0.0312500
       9       -40.0022      0.0312500
      10       -39.8444      0.0312500
      11       -39.8418      0.0312500
      12       -39.8406      0.0312500
      13       -39.8382      0.0312500
      14       -39.8153      0.0312500
      15       -39.8128      0.0312500
      16       -17.4119      0.0312500
      17       -12.7179      0.0312500
      18       -12.7032      0.0312500
      19       -12.5367      0.0312500
      20       -12.5350      0.0312500
      21       -12.5334      0.0312500
      22       -7.51742      0.0312500
      23       -7.12457      0.0312500
      24       -7.06717      0.0312500
      25       -4.54157      0.0312500
      26       -4.53900      0.0312500
      27       -4.53661      0.0312500
      28       -3.06168      0.0312500
      29       0.510550      0.0312500
      30        1.19553      0.0312500
      31        1.51913      0.0312500
      32        2.40430      0.0312500
      33        2.67351      0.0312500
      34        2.74454      0.0312500
      35        2.82114      0.0312500
      36        2.90420      0.0312500
      37        3.06070      0.0312500
      38        7.60658        0.00000
      39        7.70538        0.00000
      40        8.50043        0.00000
      41        9.23430        0.00000
      42        9.27018        0.00000
      43        9.36205        0.00000
      44        9.87441        0.00000
      45        9.93808        0.00000
      46        10.0951        0.00000
      47        11.9073        0.00000

 9/64 kpoint (Cartesian) = 0.00000 0.0779527 0.00000 (882 pws)
       1       -40.1254      0.0312500
       2       -40.1188      0.0312500
       3       -40.0840      0.0312500
       4       -40.0409      0.0312500
       5       -40.0398      0.0312500
       6       -40.0350      0.0312500
       7       -40.0344      0.0312500
       8       -40.0052      0.0312500
       9       -40.0022      0.0312500
      10       -39.8444      0.0312500
      11       -39.8418      0.0312500
      12       -39.8405      0.0312500
      13       -39.8382      0.0312500
      14       -39.8153      0.0312500
      15       -39.8128      0.0312500
      16       -17.4104      0.0312500
      17       -12.7206      0.0312500
      18       -12.7007      0.0312500
      19       -12.5369      0.0312500
      20       -12.5349      0.0312500
      21       -12.5334      0.0312500
      22       -7.48510      0.0312500
      23       -7.20150      0.0312500
      24       -7.03080      0.0312500
      25       -4.53940      0.0312500
      26       -4.53852      0.0312500
      27       -4.53322      0.0312500
      28       -3.00027      0.0312500
      29       0.513555      0.0312500
      30       0.548947      0.0312500
      31        2.14668      0.0312500
      32        2.56510      0.0312500
      33        2.64150      0.0312500
      34        2.75859      0.0312500
      35        2.82541      0.0312500
      36        2.83600      0.0312500
      37        3.11105      0.0312500
      38        6.15726        0.00000
      39        8.86187        0.00000
      40        9.19466        0.00000
      41        9.27120        0.00000
      42        9.51917        0.00000
      43        9.71295        0.00000
      44        9.73101        0.00000
      45        10.3135        0.00000
      46        10.3440        0.00000
      47        10.4798        0.00000

 10/64 kpoint (Cartesian) = 0.0389764 0.0779527 0.00000 (881 pws)
       1       -40.1248      0.0312500
       2       -40.1189      0.0312500
       3       -40.0839      0.0312500
       4       -40.0410      0.0312500
       5       -40.0399      0.0312500
       6       -40.0350      0.0312500
       7       -40.0344      0.0312500
       8       -40.0052      0.0312500
       9       -40.0022      0.0312500
      10       -39.8444      0.0312500
      11       -39.8418      0.0312500
      12       -39.8406      0.0312500
      13       -39.8382      0.0312500
      14       -39.8153      0.0312500
      15       -39.8128      0.0312500
      16       -17.4109      0.0312500
      17       -12.7179      0.0312500
      18       -12.6998      0.0312500
      19       -12.5369      0.0312500
      20       -12.5350      0.0312500
      21       -12.5335      0.0312500
      22       -7.42736      0.0312500
      23       -7.20233      0.0312500
      24       -7.09117      0.0312500
      25       -4.54064      0.0312500
      26       -4.53768      0.0312500
      27       -4.53715      0.0312500
      28       -3.27201      0.0312500
      29       0.565807      0.0312500
      30        1.36918      0.0312500
      31        2.01796      0.0312500
      32        2.45986      0.0312500
      33        2.59833      0.0312500
      34        2.69880      0.0312500
      35        2.77187      0.0312500
      36        3.09396      0.0312500
      37        3.21672      0.0312500
      38        6.01904        0.00000
      39        7.55901        0.00000
      40        9.09924        0.00000
      41        9.20936        0.00000
      42        9.59679        0.00000
      43        9.68052        0.00000
      44        9.97268        0.00000
      45        10.2421        0.00000
      46        10.2673        0.00000
      47        10.6658        0.00000

 11/64 kpoint (Cartesian) = 0.0779527 0.0779527 0.00000 (883 pws)
       1       -40.1242      0.0312500
       2       -40.1190      0.0312500
       3       -40.0839      0.0312500
       4       -40.0410      0.0312500
       5       -40.0399      0.0312500
       6       -40.0350      0.0312500
       7       -40.0344      0.0312500
       8       -40.0052      0.0312500
       9       -40.0022      0.0312500
      10       -39.8444      0.0312500
      11       -39.8418      0.0312500
      12       -39.8407      0.0312500
      13       -39.8382      0.0312500
      14       -39.8153      0.0312500
      15       -39.8128      0.0312500
      16       -17.4114      0.0312500
      17       -12.7155      0.0312500
      18       -12.6987      0.0312500
      19       -12.5369      0.0312500
      20       -12.5352      0.0312500
      21       -12.5337      0.0312500
      22       -7.32493      0.0312500
      23       -7.20613      0.0312500
      24       -7.19380      0.0312500
      25       -4.54162      0.0312500
      26       -4.54090      0.0312500
      27       -4.53635      0.0312500
      28       -3.48926      0.0312500
      29       0.629771      0.0312500
      30        1.89825      0.0312500
      31        2.38972      0.0312500
      32        2.46000      0.0312500
      33        2.56558      0.0312500
      34        2.57485      0.0312500
      35        2.58744      0.0312500
      36        3.30724      0.0312500
      37        3.59465      0.0312500
      38        5.82867        0.00000
      39        5.85999        0.00000
      40        8.96103        0.00000
      41        9.46681        0.00000
      42        9.55619        0.00000
      43        9.91783        0.00000
      44        10.2034        0.00000
      45        10.2330        0.00000
      46        10.5162        0.00000
      47        11.0030        0.00000

 12/64 kpoint (Cartesian) = 0.116929 0.0779527 0.00000 (880 pws)
       1       -40.1248      0.0312500
       2       -40.1189      0.0312500
       3       -40.0839      0.0312500
       4       -40.0410      0.0312500
       5       -40.0399      0.0312500
       6       -40.0350      0.0312500
       7       -40.0344      0.0312500
       8       -40.0052      0.0312500
       9       -40.0022      0.0312500
      10       -39.8444      0.0312500
      11       -39.8418      0.0312500
      12       -39.8406      0.0312500
      13       -39.8382      0.0312500
      14       -39.8153      0.0312500
      15       -39.8128      0.0312500
      16       -17.4109      0.0312500
      17       -12.7179      0.0312500
      18       -12.6998      0.0312500
      19       -12.5369      0.0312500
      20       -12.5350      0.0312500
      21       -12.5335      0.0312500
      22       -7.42736      0.0312500
      23       -7.20233      0.0312500
      24       -7.09117      0.0312500
      25       -4.54064      0.0312500
      26       -4.53768      0.0312500
      27       -4.53715      0.0312500
      28       -3.27201      0.0312500
      29       0.565807      0.0312500
      30        1.36918      0.0312500
      31        2.01796      0.0312500
      32        2.45986      0.0312500
      33        2.59833      0.0312500
      34        2.69880      0.0312500
      35        2.77187      0.0312500
      36        3.09396      0.0312500
      37        3.21672      0.0312500
      38        6.01904        0.00000
      39        7.55901        0.00000
      40        9.09924        0.00000
      41        9.20936        0.00000
      42        9.59679        0.00000
      43        9.68052        0.00000
      44        9.97268        0.00000
      45        10.2421        0.00000
      46        10.2673        0.00000
      47        10.6658        0.00000

 13/64 kpoint (Cartesian) = 0.00000 0.116929 0.00000 (890 pws)
       1       -40.1254      0.0312500
       2       -40.1188      0.0312500
       3       -40.0842      0.0312500
       4       -40.0409      0.0312500
       5       -40.0398      0.0312500
       6       -40.0350      0.0312500
       7       -40.0344      0.0312500
       8       -40.0052      0.0312500
       9       -40.0021      0.0312500
      10       -39.8444      0.0312500
      11       -39.8418      0.0312500
      12       -39.8405      0.0312500
      13       -39.8382      0.0312500
      14       -39.8153      0.0312500
      15       -39.8128      0.0312500
      16       -17.4121      0.0312500
      17       -12.7206      0.0312500
      18       -12.7040      0.0312500
      19       -12.5367      0.0312500
      20       -12.5349      0.0312500
      21       -12.5332      0.0312500
      22       -7.57557      0.0312500
      23       -7.08994      0.0312500
      24       -7.03186      0.0312500
      25       -4.54101      0.0312500
      26       -4.54019      0.0312500
      27       -4.53772      0.0312500
      28       -2.78530      0.0312500
      29       0.464316      0.0312500
      30       0.498527      0.0312500
      31        1.34386      0.0312500
      32        2.68248      0.0312500
      33        2.72795      0.0312500
      34        2.80299      0.0312500
      35        2.84197      0.0312500
      36        2.87565      0.0312500
      37        2.91762      0.0312500
      38        7.76923        0.00000
      39        8.08469        0.00000
      40        8.99117        0.00000
      41        9.10415        0.00000
      42        9.28870        0.00000
      43        9.40789        0.00000
      44        9.65880        0.00000
      45        9.84813        0.00000
      46        9.87774        0.00000
      47        12.6007        0.00000

 14/64 kpoint (Cartesian) = 0.0389764 0.116929 0.00000 (890 pws)
       1       -40.1248      0.0312500
       2       -40.1189      0.0312500
       3       -40.0842      0.0312500
       4       -40.0410      0.0312500
       5       -40.0398      0.0312500
       6       -40.0350      0.0312500
       7       -40.0344      0.0312500
       8       -40.0052      0.0312500
       9       -40.0022      0.0312500
      10       -39.8444      0.0312500
      11       -39.8418      0.0312500
      12       -39.8406      0.0312500
      13       -39.8382      0.0312500
      14       -39.8153      0.0312500
      15       -39.8128      0.0312500
      16       -17.4119      0.0312500
      17       -12.7179      0.0312500
      18       -12.7032      0.0312500
      19       -12.5367      0.0312500
      20       -12.5350      0.0312500
      21       -12.5334      0.0312500
      22       -7.51742      0.0312500
      23       -7.12457      0.0312500
      24       -7.06717      0.0312500
      25       -4.54157      0.0312500
      26       -4.53900      0.0312500
      27       -4.53661      0.0312500
      28       -3.06168      0.0312500
      29       0.510550      0.0312500
      30        1.19553      0.0312500
      31        1.51913      0.0312500
      32        2.40430      0.0312500
      33        2.67351      0.0312500
      34        2.74454      0.0312500
      35        2.82114      0.0312500
      36        2.90420      0.0312500
      37        3.06070      0.0312500
      38        7.60658        0.00000
      39        7.70538        0.00000
      40        8.50043        0.00000
      41        9.23430        0.00000
      42        9.27018        0.00000
      43        9.36205        0.00000
      44        9.87441        0.00000
      45        9.93808        0.00000
      46        10.0951        0.00000
      47        11.9073        0.00000

 15/64 kpoint (Cartesian) = 0.0779527 0.116929 0.00000 (891 pws)
       1       -40.1242      0.0312500
       2       -40.1190      0.0312500
       3       -40.0842      0.0312500
       4       -40.0410      0.0312500
       5       -40.0399      0.0312500
       6       -40.0350      0.0312500
       7       -40.0344      0.0312500
       8       -40.0052      0.0312500
       9       -40.0022      0.0312500
      10       -39.8444      0.0312500
      11       -39.8418      0.0312500
      12       -39.8406      0.0312500
      13       -39.8382      0.0312500
      14       -39.8153      0.0312500
      15       -39.8128      0.0312500
      16       -17.4119      0.0312500
      17       -12.7156      0.0312500
      18       -12.7019      0.0312500
      19       -12.5367      0.0312500
      20       -12.5352      0.0312500
      21       -12.5335      0.0312500
      22       -7.42197      0.0312500
      23       -7.22662      0.0312500
      24       -7.07280      0.0312500
      25       -4.54113      0.0312500
      26       -4.53769      0.0312500
      27       -4.53670      0.0312500
      28       -3.27641      0.0312500
      29       0.567307      0.0312500
      30        1.40958      0.0312500
      31        2.03379      0.0312500
      32        2.44046      0.0312500
      33        2.58825      0.0312500
      34        2.68559      0.0312500
      35        2.79941      0.0312500
      36        3.08339      0.0312500
      37        3.20780      0.0312500
      38        5.98686        0.00000
      39        7.52449        0.00000
      40        9.08970        0.00000
      41        9.22185        0.00000
      42        9.60072        0.00000
      43        9.70284        0.00000
      44        9.95531        0.00000
      45        10.2339        0.00000
      46        10.2454        0.00000
      47        10.6959        0.00000

 16/64 kpoint (Cartesian) = 0.116929 0.116929 0.00000 (889 pws)
       1       -40.1248      0.0312500
       2       -40.1189      0.0312500
       3       -40.0842      0.0312500
       4       -40.0410      0.0312500
       5       -40.0398      0.0312500
       6       -40.0350      0.0312500
       7       -40.0344      0.0312500
       8       -40.0052      0.0312500
       9       -40.0022      0.0312500
      10       -39.8444      0.0312500
      11       -39.8418      0.0312500
      12       -39.8406      0.0312500
      13       -39.8382      0.0312500
      14       -39.8153      0.0312500
      15       -39.8128      0.0312500
      16       -17.4119      0.0312500
      17       -12.7179      0.0312500
      18       -12.7032      0.0312500
      19       -12.5367      0.0312500
      20       -12.5350      0.0312500
      21       -12.5334      0.0312500
      22       -7.51730      0.0312500
      23       -7.12560      0.0312500
      24       -7.06626      0.0312500
      25       -4.54151      0.0312500
      26       -4.53905      0.0312500
      27       -4.53665      0.0312500
      28       -3.06155      0.0312500
      29       0.510549      0.0312500
      30        1.19083      0.0312500
      31        1.52636      0.0312500
      32        2.39855      0.0312500
      33        2.67228      0.0312500
      34        2.74399      0.0312500
      35        2.82206      0.0312500
      36        2.90753      0.0312500
      37        3.06137      0.0312500
      38        7.60117        0.00000
      39        7.71005        0.00000
      40        8.50262        0.00000
      41        9.23061        0.00000
      42        9.27917        0.00000
      43        9.35291        0.00000
      44        9.88128        0.00000
      45        9.93980        0.00000
      46        10.0954        0.00000
      47        11.9044        0.00000

 17/64 kpoint (Cartesian) = 0.00000 0.00000 0.0389764 (882 pws)
       1       -40.1254      0.0312500
       2       -40.1185      0.0312500
       3       -40.0845      0.0312500
       4       -40.0409      0.0312500
       5       -40.0398      0.0312500
       6       -40.0351      0.0312500
       7       -40.0345      0.0312500
       8       -40.0052      0.0312500
       9       -40.0021      0.0312500
      10       -39.8444      0.0312500
      11       -39.8418      0.0312500
      12       -39.8405      0.0312500
      13       -39.8382      0.0312500
      14       -39.8153      0.0312500
      15       -39.8128      0.0312500
      16       -17.4131      0.0312500
      17       -12.7185      0.0312500
      18       -12.7059      0.0312500
      19       -12.5366      0.0312500
      20       -12.5350      0.0312500
      21       -12.5331      0.0312500
      22       -7.57118      0.0312500
      23       -7.11398      0.0312500
      24       -7.01413      0.0312500
      25       -4.54145      0.0312500
      26       -4.54052      0.0312500
      27       -4.53689      0.0312500
      28       -2.79590      0.0312500
      29       0.502540      0.0312500
      30       0.541793      0.0312500
      31        1.30145      0.0312500
      32        2.65752      0.0312500
      33        2.72408      0.0312500
      34        2.80169      0.0312500
      35        2.85776      0.0312500
      36        2.87257      0.0312500
      37        2.91323      0.0312500
      38        7.78605        0.00000
      39        8.09884        0.00000
      40        9.01194        0.00000
      41        9.10693        0.00000
      42        9.18278        0.00000
      43        9.31404        0.00000
      44        9.58912        0.00000
      45        9.91659        0.00000
      46        9.92048        0.00000
      47        12.5818        0.00000

 18/64 kpoint (Cartesian) = 0.0389764 0.00000 0.0389764 (882 pws)
       1       -40.1248      0.0312500
       2       -40.1185      0.0312500
       3       -40.0845      0.0312500
       4       -40.0410      0.0312500
       5       -40.0398      0.0312500
       6       -40.0351      0.0312500
       7       -40.0345      0.0312500
       8       -40.0052      0.0312500
       9       -40.0021      0.0312500
      10       -39.8444      0.0312500
      11       -39.8418      0.0312500
      12       -39.8405      0.0312500
      13       -39.8382      0.0312500
      14       -39.8154      0.0312500
      15       -39.8128      0.0312500
      16       -17.4129      0.0312500
      17       -12.7153      0.0312500
      18       -12.7055      0.0312500
      19       -12.5366      0.0312500
      20       -12.5352      0.0312500
      21       -12.5332      0.0312500
      22       -7.51309      0.0312500
      23       -7.14141      0.0312500
      24       -7.05655      0.0312500
      25       -4.54087      0.0312500
      26       -4.53997      0.0312500
      27       -4.53622      0.0312500
      28       -3.07118      0.0312500
      29       0.595369      0.0312500
      30        1.16360      0.0312500
      31        1.50805      0.0312500
      32        2.37712      0.0312500
      33        2.68638      0.0312500
      34        2.76472      0.0312500
      35        2.82039      0.0312500
      36        2.86999      0.0312500
      37        3.06410      0.0312500
      38        7.61556        0.00000
      39        7.72999        0.00000
      40        8.50697        0.00000
      41        9.05615        0.00000
      42        9.28522        0.00000
      43        9.34995        0.00000
      44        9.88536        0.00000
      45        9.94303        0.00000
      46        10.0942        0.00000
      47        11.9244        0.00000
[...]
      46        10.2374        0.00000
      47        10.6832        0.00000

 58/64 kpoint (Cartesian) = 0.0389764 0.0779527 0.116929 (895 pws)
       1       -40.1248      0.0312500
       2       -40.1185      0.0312500
       3       -40.0839      0.0312500
       4       -40.0410      0.0312500
       5       -40.0398      0.0312500
       6       -40.0351      0.0312500
       7       -40.0345      0.0312500
       8       -40.0052      0.0312500
       9       -40.0022      0.0312500
      10       -39.8445      0.0312500
      11       -39.8418      0.0312500
      12       -39.8406      0.0312500
      13       -39.8382      0.0312500
      14       -39.8154      0.0312500
      15       -39.8128      0.0312500
      16       -17.4108      0.0312500
      17       -12.7152      0.0312500
      18       -12.6988      0.0312500
      19       -12.5370      0.0312500
      20       -12.5352      0.0312500
      21       -12.5335      0.0312500
      22       -7.37618      0.0312500
      23       -7.20100      0.0312500
      24       -7.13518      0.0312500
      25       -4.54653      0.0312500
      26       -4.54284      0.0312500
      27       -4.53862      0.0312500
      28       -3.54190      0.0312500
      29        1.28251      0.0312500
      30        1.53168      0.0312500
      31        2.00783      0.0312500
      32        2.18791      0.0312500
      33        2.39852      0.0312500
      34        2.95086      0.0312500
      35        3.01591      0.0312500
      36        3.14566      0.0312500
      37        3.27392      0.0312500
      38        5.84369        0.00000
      39        7.24632        0.00000
      40        7.62010        0.00000
      41        9.01730        0.00000
      42        9.55121        0.00000
      43        9.78044        0.00000
      44        9.85888        0.00000
      45        9.88367        0.00000
      46        10.2889        0.00000
      47        11.4336        0.00000

 59/64 kpoint (Cartesian) = 0.0779527 0.0779527 0.116929 (891 pws)
       1       -40.1241      0.0312500
       2       -40.1185      0.0312500
       3       -40.0839      0.0312500
       4       -40.0410      0.0312500
       5       -40.0399      0.0312500
       6       -40.0351      0.0312500
       7       -40.0345      0.0312500
       8       -40.0052      0.0312500
       9       -40.0022      0.0312500
      10       -39.8445      0.0312500
      11       -39.8418      0.0312500
      12       -39.8407      0.0312500
      13       -39.8382      0.0312500
      14       -39.8154      0.0312500
      15       -39.8128      0.0312500
      16       -17.4114      0.0312500
      17       -12.7125      0.0312500
      18       -12.6980      0.0312500
      19       -12.5370      0.0312500
      20       -12.5353      0.0312500
      21       -12.5336      0.0312500
      22       -7.29720      0.0312500
      23       -7.20806      0.0312500
      24       -7.19761      0.0312500
      25       -4.54785      0.0312500
      26       -4.54752      0.0312500
      27       -4.54455      0.0312500
      28       -3.76081      0.0312500
      29        1.45289      0.0312500
      30        1.95326      0.0312500
      31        2.12531      0.0312500
      32        2.13495      0.0312500
      33        2.51211      0.0312500
      34        3.02320      0.0312500
      35        3.02793      0.0312500
      36        3.31338      0.0312500
      37        3.67066      0.0312500
      38        5.63849        0.00000
      39        5.66002        0.00000
      40        7.31941        0.00000
      41        8.95021        0.00000
      42        9.41617        0.00000
      43        9.59615        0.00000
      44        9.59744        0.00000
      45        10.0501        0.00000
      46        10.3958        0.00000
      47        12.0003        0.00000

 60/64 kpoint (Cartesian) = 0.116929 0.0779527 0.116929 (886 pws)
       1       -40.1248      0.0312500
       2       -40.1185      0.0312500
       3       -40.0839      0.0312500
       4       -40.0410      0.0312500
       5       -40.0398      0.0312500
       6       -40.0351      0.0312500
       7       -40.0345      0.0312500
       8       -40.0052      0.0312500
       9       -40.0022      0.0312500
      10       -39.8445      0.0312500
      11       -39.8418      0.0312500
      12       -39.8406      0.0312500
      13       -39.8382      0.0312500
      14       -39.8154      0.0312500
      15       -39.8128      0.0312500
      16       -17.4109      0.0312500
      17       -12.7152      0.0312500
      18       -12.6988      0.0312500
      19       -12.5370      0.0312500
      20       -12.5352      0.0312500
      21       -12.5335      0.0312500
      22       -7.37642      0.0312500
      23       -7.20102      0.0312500
      24       -7.13484      0.0312500
      25       -4.54647      0.0312500
      26       -4.54287      0.0312500
      27       -4.53859      0.0312500
      28       -3.54228      0.0312500
      29        1.28198      0.0312500
      30        1.53415      0.0312500
      31        2.00653      0.0312500
      32        2.19014      0.0312500
      33        2.40441      0.0312500
      34        2.94536      0.0312500
      35        3.02360      0.0312500
      36        3.14893      0.0312500
      37        3.25478      0.0312500
      38        5.84450        0.00000
      39        7.35845        0.00000
      40        7.50011        0.00000
      41        9.01658        0.00000
      42        9.56618        0.00000
      43        9.77216        0.00000
      44        9.83517        0.00000
      45        9.92734        0.00000
      46        10.2955        0.00000
      47        11.4318        0.00000

 61/64 kpoint (Cartesian) = 0.00000 0.116929 0.116929 (890 pws)
       1       -40.1254      0.0312500
       2       -40.1184      0.0312500
       3       -40.0842      0.0312500
       4       -40.0409      0.0312500
       5       -40.0398      0.0312500
       6       -40.0351      0.0312500
       7       -40.0345      0.0312500
       8       -40.0052      0.0312500
       9       -40.0021      0.0312500
      10       -39.8445      0.0312500
      11       -39.8418      0.0312500
      12       -39.8405      0.0312500
      13       -39.8382      0.0312500
      14       -39.8153      0.0312500
      15       -39.8128      0.0312500
      16       -17.4119      0.0312500
      17       -12.7183      0.0312500
      18       -12.7027      0.0312500
      19       -12.5368      0.0312500
      20       -12.5350      0.0312500
      21       -12.5332      0.0312500
      22       -7.51322      0.0312500
      23       -7.12596      0.0312500
      24       -7.07116      0.0312500
      25       -4.54109      0.0312500
      26       -4.53947      0.0312500
      27       -4.53654      0.0312500
      28       -3.06531      0.0312500
      29       0.550663      0.0312500
      30        1.15419      0.0312500
      31        1.53667      0.0312500
      32        2.38857      0.0312500
      33        2.65870      0.0312500
      34        2.73762      0.0312500
      35        2.83790      0.0312500
      36        2.91458      0.0312500
      37        3.06079      0.0312500
      38        7.49393        0.00000
      39        7.84564        0.00000
      40        8.50629        0.00000
      41        9.17361        0.00000
      42        9.27715        0.00000
      43        9.33885        0.00000
      44        9.88570        0.00000
      45        9.95730        0.00000
      46        10.0868        0.00000
      47        11.8880        0.00000

 62/64 kpoint (Cartesian) = 0.0389764 0.116929 0.116929 (892 pws)
       1       -40.1248      0.0312500
       2       -40.1185      0.0312500
       3       -40.0842      0.0312500
       4       -40.0410      0.0312500
       5       -40.0398      0.0312500
       6       -40.0351      0.0312500
       7       -40.0345      0.0312500
       8       -40.0052      0.0312500
       9       -40.0021      0.0312500
      10       -39.8445      0.0312500
      11       -39.8418      0.0312500
      12       -39.8406      0.0312500
      13       -39.8382      0.0312500
      14       -39.8154      0.0312500
      15       -39.8128      0.0312500
      16       -17.4119      0.0312500
      17       -12.7153      0.0312500
      18       -12.7022      0.0312500
      19       -12.5368      0.0312500
      20       -12.5352      0.0312500
      21       -12.5334      0.0312500
      22       -7.46028      0.0312500
      23       -7.13803      0.0312500
      24       -7.11327      0.0312500
      25       -4.54426      0.0312500
      26       -4.54337      0.0312500
      27       -4.53506      0.0312500
      28       -3.33090      0.0312500
      29        1.19864      0.0312500
      30        1.25726      0.0312500
      31        1.68189      0.0312500
      32        2.36232      0.0312500
      33        2.37848      0.0312500
      34        2.61923      0.0312500
      35        3.03856      0.0312500
      36        3.05220      0.0312500
      37        3.06733      0.0312500
      38        7.31704        0.00000
      39        7.48207        0.00000
      40        7.81011        0.00000
      41        8.68470        0.00000
      42        9.40219        0.00000
      43        9.41798        0.00000
      44        10.0686        0.00000
      45        10.0870        0.00000
      46        10.3328        0.00000
      47        11.2784        0.00000

 63/64 kpoint (Cartesian) = 0.0779527 0.116929 0.116929 (893 pws)
       1       -40.1242      0.0312500
       2       -40.1185      0.0312500
       3       -40.0842      0.0312500
       4       -40.0410      0.0312500
       5       -40.0399      0.0312500
       6       -40.0351      0.0312500
       7       -40.0345      0.0312500
       8       -40.0052      0.0312500
       9       -40.0022      0.0312500
      10       -39.8445      0.0312500
      11       -39.8418      0.0312500
      12       -39.8406      0.0312500
      13       -39.8382      0.0312500
      14       -39.8154      0.0312500
      15       -39.8128      0.0312500
      16       -17.4119      0.0312500
      17       -12.7125      0.0312500
      18       -12.7013      0.0312500
      19       -12.5368      0.0312500
      20       -12.5353      0.0312500
      21       -12.5335      0.0312500
      22       -7.37131      0.0312500
      23       -7.22574      0.0312500
      24       -7.11607      0.0312500
      25       -4.54643      0.0312500
      26       -4.54270      0.0312500
      27       -4.53891      0.0312500
      28       -3.54483      0.0312500
      29        1.27969      0.0312500
      30        1.57546      0.0312500
      31        2.01745      0.0312500
      32        2.18928      0.0312500
      33        2.40519      0.0312500
      34        2.90589      0.0312500
      35        3.03299      0.0312500
      36        3.13924      0.0312500
      37        3.26705      0.0312500
      38        5.82180        0.00000
      39        7.22623        0.00000
      40        7.60176        0.00000
      41        9.01846        0.00000
      42        9.57112        0.00000
      43        9.77757        0.00000
      44        9.84947        0.00000
      45        9.91452        0.00000
      46        10.2864        0.00000
      47        11.4405        0.00000

 64/64 kpoint (Cartesian) = 0.116929 0.116929 0.116929 (892 pws)
       1       -40.1248      0.0312500
       2       -40.1185      0.0312500
       3       -40.0842      0.0312500
       4       -40.0410      0.0312500
       5       -40.0398      0.0312500
       6       -40.0351      0.0312500
       7       -40.0345      0.0312500
       8       -40.0052      0.0312500
       9       -40.0021      0.0312500
      10       -39.8445      0.0312500
      11       -39.8418      0.0312500
      12       -39.8406      0.0312500
      13       -39.8382      0.0312500
      14       -39.8154      0.0312500
      15       -39.8128      0.0312500
      16       -17.4119      0.0312500
      17       -12.7153      0.0312500
      18       -12.7022      0.0312500
      19       -12.5368      0.0312500
      20       -12.5352      0.0312500
      21       -12.5334      0.0312500
      22       -7.46013      0.0312500
      23       -7.14188      0.0312500
      24       -7.10955      0.0312500
      25       -4.54473      0.0312500
      26       -4.54264      0.0312500
      27       -4.53518      0.0312500
      28       -3.33133      0.0312500
      29        1.17221      0.0312500
      30        1.28826      0.0312500
      31        1.68638      0.0312500
      32        2.34217      0.0312500
      33        2.39926      0.0312500
      34        2.60461      0.0312500
      35        3.03417      0.0312500
      36        3.05167      0.0312500
      37        3.07492      0.0312500
      38        7.33994        0.00000
      39        7.52995        0.00000
      40        7.73327        0.00000
      41        8.67992        0.00000
      42        9.38601        0.00000
      43        9.44540        0.00000
      44        10.0479        0.00000
      45        10.1201        0.00000
      46        10.3225        0.00000
      47        11.3048        0.00000

 EFERMI = 4.019086949734668 eV
 OUT.ABACUS/ final etot is -10358.28332707129 eV
 Descriptors have been printed to .//descriptor.dat
 Calculate the energy density matrix with k 
                                      irr = 9740
                                 LNNR.nnr = 9740
                                      irr = 9740
                                 LNNR.nnr = 9740
 Calculate the energy density matrix with k 
                                      irr = 9740
                                 LNNR.nnr = 9740
                                      irr = 9740
                                 LNNR.nnr = 9740
 LNNR.nnrg in cal_force_k = 92583
 F_delta has been printed to .//F_delta.dat
 correction force for each atom along direction 1 is -0.000121656
 correction force for each atom along direction 2 is -8.97445e-05
 correction force for each atom along direction 3 is 5.28478e-06

 ><><><><><><><><><><><><><><><><><><><><><><

    TOTAL-FORCE (eV/Angstrom)

 ><><><><><><><><><><><><><><><><><><><><><><

     atom              x              y              z
      Cs1  -0.0058415669  +0.0045789487   -0.020249359
      Pb1   +0.035739948  -0.0057744128  -0.0095197364
       I1   -0.052114745   +0.010866381    +0.11040690
       I2   -0.034391346   -0.013076254   -0.047833400
       I3   +0.056607709  +0.0034053372   -0.032804406


 --------------------------------------------
 !FINAL_ETOT_IS -10358.28332707129 eV
 --------------------------------------------






  |CLASS_NAME---------|NAME---------------|TIME(Sec)-----|CALLS----|AVG------|PER%-------
                                      total         46.654        11       4.2   1.0e+02%
               Run_lcao           lcao_line         46.642         1       47.    1.e+02%
            ORB_control      read_orb_first        0.71775         1      0.72       1.5%
          LCAO_Orbitals       Read_Orbitals        0.71775         1      0.72       1.5%
            NOrbital_Lm       extra_uniform        0.55582        64    0.0087       1.2%
          Mathzone_Add1       Uni_Deriv_Phi        0.51645        64    0.0081       1.1%
            ORB_control      set_orb_tables         19.142         1       19.       41.%
         ORB_gen_tables          gen_tables         19.142         1       19.       41.%
          ORB_table_phi          init_Table         4.9757         1       5.0       11.%
          ORB_table_phi      cal_ST_Phi12_R         4.9294       678    0.0073       11.%
         ORB_table_beta     init_Table_Beta         3.9907         1       4.0       8.6%
         ORB_table_beta       VNL_PhiBeta_R         3.9617       574    0.0069       8.5%
        ORB_table_alpha    init_Table_Alpha         9.9421         1       9.9       21.%
        ORB_table_alpha        S_PhiAlpha_R         9.8798      1260    0.0078       21.%
              Potential            v_of_rho        0.12517        12     0.010      0.27%
                H_XC_pw                v_xc        0.12223        13    0.0094      0.26%
              LOOP_ions            opt_ions         26.225         1       26.       56.%
              LOOP_elec     solve_elec_stru         19.168         1       19.       41.%
              LOOP_elec              solver         18.992         1       19.       41.%
               ELEC_scf                 scf         18.992         1       19.       41.%
          ELEC_cbands_k           cal_bands         15.319        10       1.5       33.%
            LCAO_Deepks  cal_projected_DM_k         17.274        12       1.4       37.%
        LCAO_DESCRIPTOR       add_v_delta_k         2.3274        10      0.23       5.0%
                 Gint_k              vlocal         1.8844        10      0.19       4.0%
             Efficience              each_k         5.9660       640    0.0093       13.%
             Efficience                 H_k         2.0035       640    0.0031       4.3%
            LCAO_Hamilt        calculate_Hk         2.0019       640    0.0031       4.3%
                 Gint_k        folding_vl_k        0.54530       640   0.00085       1.2%
                 Gint_k              Distri        0.31682       640   0.00050      0.68%
               LCAO_nnr      folding_fixedH         1.4513       640    0.0023       3.1%
             Efficience             diago_k         3.9619       640    0.0062       8.5%
      Diago_LCAO_Matrix          elpa_solve         3.7813       640    0.0059       8.1%
      Diago_LCAO_Matrix    gath_eig_complex        0.12530       640   0.00020      0.27%
      Local_Orbital_Cha           sum_bands         3.3640        10      0.34       7.2%
            LCAO_Charge            cal_dk_k         1.5097        10      0.15       3.2%
                 Gint_k           cal_rho_k         1.5022        10      0.15       3.2%
              LOOP_ions        force_stress         6.5841         1       6.6       14.%
      Force_Stress_LCAO      getForceStress         6.5840         1       6.6       14.%
           Force_LCAO_k            ftable_k         3.5376         1       3.5       7.6%
           Force_LCAO_k      cal_foverlap_k        0.34502         1      0.35      0.74%
           Force_LCAO_k           set_EDM_k        0.66079         2      0.33       1.4%
           Force_LCAO_k      cal_fvl_dphi_k         1.6818         1       1.7       3.6%
                 Gint_k     svl_k_RealSpace         1.6520         1       1.7       3.5%
                 Gint_k   evaluate_vl_force         1.4696      1800   0.00082       3.1%
           Force_LCAO_kcal_fvnl_dbeta_k_new        0.12713         1      0.13      0.27%
            LCAO_Deepkscal_f_delta_hf_k_new        0.48706         1      0.49       1.0%
            LCAO_Deepks          cal_gdmx_k         2.9123         1       2.9       6.2%
 ----------------------------------------------------------------------------------------

 CLASS_NAME---------|NAME---------------|MEMORY(MB)--------
                                         1.165e+05
        ORB_table_phi               Jl(x)          142.9
      ORB_table_alpha           Table_DSR          16.18
        ORB_table_phi         Table_SR&TR          10.58
       ORB_table_beta            Table_NR          5.354
        Grid_Meshcell        index2normal          2.512
        Grid_Meshcell         index2ucell          2.512
        init_meshball        meshball_pos          2.275
 ----------------------------------------------------------

 Start  Time  : Wed Apr  6 22:27:59 2022
 Finish Time  : Wed Apr  6 22:28:46 2022
 Total  Time  : 0 h 0 mins 47 secs 
