 *********************************************************
 *                                                       *
 *                  WELCOME TO ABACUS                    *
 *                                                       *
 *            'Atomic-orbital Based Ab-initio            *
 *                  Computation at UStc'                 *
 *                                                       *
 *          Website: http://abacus.ustc.edu.cn/          *
 *                                                       *
 *********************************************************
 Wed Apr  6 22:27:59 2022
 MAKE THE DIR         : OUT.ABACUS/
 dft_functional readin is: pbe
 dft_functional in pseudopot file is: PBE
In Pseudopot_upf::read_pseudo_header : input xc functional does not match that in pseudopot file
Please make sure this is what you need
 dft_functional readin is: pbe
 dft_functional in pseudopot file is: PBE
In Pseudopot_upf::read_pseudo_header : input xc functional does not match that in pseudopot file
Please make sure this is what you need
 dft_functional readin is: pbe
 dft_functional in pseudopot file is: PBE
In Pseudopot_upf::read_pseudo_header : input xc functional does not match that in pseudopot file
Please make sure this is what you need
 DONE(0.0565111  SEC) : SETUP UNITCELL
 DONE(0.0583706  SEC) : INIT K-POINTS
 ---------------------------------------------------------
 Self-consistent calculations for electrons
 ---------------------------------------------------------
 SPIN    KPOINTS         PROCESSORS  NBASE       
 1       64              16          87          
 ---------------------------------------------------------
 Use Systematically Improvable Atomic bases
 ---------------------------------------------------------
 ELEMENT ORBITALS        NBASE       NATOM       XC          
 Cs      4s2p1d-11au     15          1           PBE
 Pb      2s2p2d-9au      18          1           PBE
 I       2s2p2d-8au      18          3           PBE
 ---------------------------------------------------------
 Initial plane wave basis and FFT box
 ---------------------------------------------------------
 SET NONLOCAL PSEUDOPOTENTIAL PROJECTORS
 SET NONLOCAL PSEUDOPOTENTIAL PROJECTORS
 SET NONLOCAL PSEUDOPOTENTIAL PROJECTORS
 DONE(20.3228    SEC) : INIT PLANEWAVE
 UNIFORM GRID DIM     : 60 * 60 * 60
 UNIFORM GRID DIM(BIG): 30 * 30 * 30
 DONE(20.326     SEC) : INIT CHARGE
 DONE(20.3262    SEC) : INIT POTENTIAL
 START POTENTIAL      : atomic
 -------------------------------------------
 SELF-CONSISTENT : 
 -------------------------------------------
 ITER   ETOT(eV)       EDIFF(eV)      DRHO2      TIME(s)    
 HOMO index is 42
 HOMO energy 0.269102
 LUMO index is 42
 LUMO energy 0.436914
 GE1    -1.035735e+04  0.000000e+00   4.417e-02  1.628e+00  
 HOMO index is 42
 HOMO energy 2.910e-01
 LUMO index is 42
 LUMO energy 3.961e-01
 GE2    -1.035818e+04  -8.284464e-01  1.744e-02  1.921e+00  
 HOMO index is 42
 HOMO energy 2.932e-01
 LUMO index is 42
 LUMO energy 3.946e-01
 GE3    -1.035826e+04  -8.488711e-02  8.187e-03  2.075e+00  
 HOMO index is 42
 HOMO energy 2.957e-01
 LUMO index is 42
 LUMO energy 3.999e-01
 GE4    -1.035829e+04  -2.776898e-02  1.535e-03  1.821e+00  
 HOMO index is 42
 HOMO energy 2.955e-01
 LUMO index is 42
 LUMO energy 3.992e-01
 GE5    -1.035828e+04  1.012477e-02   6.131e-04  1.836e+00  
 HOMO index is 42
 HOMO energy 2.953e-01
 LUMO index is 42
 LUMO energy 3.991e-01
 GE6    -1.035828e+04  -1.498704e-03  6.735e-05  2.124e+00  
 HOMO index is 42
 HOMO energy 2.954e-01
 LUMO index is 42
 LUMO energy 3.992e-01
 GE7    -1.035828e+04  -2.959086e-04  1.722e-05  1.920e+00  
 HOMO index is 42
 HOMO energy 2.954e-01
 LUMO index is 42
 LUMO energy 3.992e-01
 GE8    -1.035828e+04  1.906609e-04   4.599e-06  1.835e+00  
 HOMO index is 42
 HOMO energy 2.954e-01
 LUMO index is 42
 LUMO energy 3.992e-01
 GE9    -1.035828e+04  -6.978067e-06  9.770e-07  1.915e+00  
 HOMO index is 42
 HOMO energy 2.954e-01
 LUMO index is 42
 LUMO energy 3.992e-01
 GE10   -1.035828e+04  1.146242e-05   3.810e-07  1.832e+00  
E_delta_band = -1.80637298e-01 Ry = -2.45769653e+00 eV
E_delta_NN= -7.48651437e-04 Ry = -1.01859254e-02 eV

  |CLASS_NAME---------|NAME---------------|TIME(Sec)-----|CALLS----|AVG------|PER%-------
                       total               46.654         11        4.2       1e+02     %
   Run_lcao            lcao_line           46.642         1         47        1e+02     %
   ORB_control         read_orb_first      0.71775        1         0.72      1.5       %
   LCAO_Orbitals       Read_Orbitals       0.71775        1         0.72      1.5       %
   NOrbital_Lm         extra_uniform       0.55582        64        0.0087    1.2       %
   Mathzone_Add1       Uni_Deriv_Phi       0.51645        64        0.0081    1.1       %
   ORB_control         set_orb_tables      19.142         1         19        41        %
   ORB_gen_tables      gen_tables          19.142         1         19        41        %
   ORB_table_phi       init_Table          4.9757         1         5         11        %
   ORB_table_phi       cal_ST_Phi12_R      4.9294         678       0.0073    11        %
   ORB_table_beta      init_Table_Beta     3.9907         1         4         8.6       %
   ORB_table_beta      VNL_PhiBeta_R       3.9617         574       0.0069    8.5       %
   ORB_table_alpha     init_Table_Alpha    9.9421         1         9.9       21        %
   ORB_table_alpha     S_PhiAlpha_R        9.8798         1260      0.0078    21        %
   Potential           v_of_rho            0.12517        12        0.01      0.27      %
   H_XC_pw             v_xc                0.12223        13        0.0094    0.26      %
   LOOP_ions           opt_ions            26.225         1         26        56        %
   LOOP_elec           solve_elec_stru     19.168         1         19        41        %
   LOOP_elec           solver              18.992         1         19        41        %
   ELEC_scf            scf                 18.992         1         19        41        %
   ELEC_cbands_k       cal_bands           15.319         10        1.5       33        %
   LCAO_Deepks         cal_projected_DM_k  17.274         12        1.4       37        %
   LCAO_DESCRIPTOR     add_v_delta_k       2.3274         10        0.23      5         %
   Gint_k              vlocal              1.8844         10        0.19      4         %
   Efficience          each_k              5.966          640       0.0093    13        %
   Efficience          H_k                 2.0035         640       0.0031    4.3       %
   LCAO_Hamilt         calculate_Hk        2.0019         640       0.0031    4.3       %
   Gint_k              folding_vl_k        0.5453         640       0.00085   1.2       %
   Gint_k              Distri              0.31682        640       0.0005    0.68      %
   LCAO_nnr            folding_fixedH      1.4513         640       0.0023    3.1       %
   Efficience          diago_k             3.9619         640       0.0062    8.5       %
   Diago_LCAO_Matrix   elpa_solve          3.7813         640       0.0059    8.1       %
   Diago_LCAO_Matrix   gath_eig_complex    0.1253         640       0.0002    0.27      %
   Local_Orbital_Cha   sum_bands           3.364          10        0.34      7.2       %
   LCAO_Charge         cal_dk_k            1.5097         10        0.15      3.2       %
   Gint_k              cal_rho_k           1.5022         10        0.15      3.2       %
   LOOP_ions           force_stress        6.5841         1         6.6       14        %
   Force_Stress_LCAO   getForceStress      6.584          1         6.6       14        %
   Force_LCAO_k        ftable_k            3.5376         1         3.5       7.6       %
   Force_LCAO_k        cal_foverlap_k      0.34502        1         0.35      0.74      %
   Force_LCAO_k        set_EDM_k           0.66079        2         0.33      1.4       %
   Force_LCAO_k        cal_fvl_dphi_k      1.6818         1         1.7       3.6       %
   Gint_k              svl_k_RealSpace     1.652          1         1.7       3.5       %
   Gint_k              evaluate_vl_force   1.4696         1800      0.00082   3.1       %
   Force_LCAO_k        cal_fvnl_dbeta_k_new0.12713        1         0.13      0.27      %
   LCAO_Deepks         cal_f_delta_hf_k_new0.48706        1         0.49      1         %
   LCAO_Deepks         cal_gdmx_k          2.9123         1         2.9       6.2       %
 ----------------------------------------------------------------------------------------

 START  Time  : Wed Apr  6 22:27:59 2022
 FINISH Time  : Wed Apr  6 22:28:46 2022
 TOTAL  Time  : 47
 SEE INFORMATION IN : OUT.ABACUS/
