                                                                                     
                             WELCOME TO ABACUS                                       
                                                                                     
               'Atomic-orbital Based Ab-initio Computation at UStc'                  
                                                                                     
                     Website: http://abacus.ustc.edu.cn/                             
                                                                                     
    Version: Parallel, in development
    Processor Number is 8
    Start Time is Wed Apr  6 22:27:05 2022
                                                                                     
 ------------------------------------------------------------------------------------

 READING GENERAL INFORMATION
                           global_out_dir = OUT.ABACUS/
                           global_in_card = INPUT
                               pseudo_dir = 
                              orbital_dir = 
                              pseudo_type = auto
                                    DRANK = 1
                                    DSIZE = 8
                                   DCOLOR = 1
                                    GRANK = 1
                                    GSIZE = 1




 >>>>>>>>>>>>>>>>>>>>>>>>>>>>>>>>>>>>>>>>>>>>>>>>>>>>>>>>>>>>>>>>>>>>>>
 |                                                                    |
 | Reading atom information in unitcell:                              |
 | From the input file and the structure file we know the number of   |
 | different elments in this unitcell, then we list the detail        |
 | information for each element, especially the zeta and polar atomic |
 | orbital number for each element. The total atom number is counted. |
 | We calculate the nearest atom distance for each atom and show the  |
 | Cartesian and Direct coordinates for each atom. We list the file   |
 | address for atomic orbitals. The volume and the lattice vectors    |
 | in real and reciprocal space is also shown.                        |
 |                                                                    |
 <<<<<<<<<<<<<<<<<<<<<<<<<<<<<<<<<<<<<<<<<<<<<<<<<<<<<<<<<<<<<<<<<<<<<<




 READING UNITCELL INFORMATION
                                    ntype = 1
                 atom label for species 1 = C
                  lattice constant (Bohr) = 1.88973
              lattice constant (Angstrom) = 1

 READING ATOM TYPE 1
                               atom label = C
                      L=0, number of zeta = 2
                      L=1, number of zeta = 2
                      L=2, number of zeta = 1
             number of atom for this type = 2
                      start magnetization = FALSE
                      start magnetization = FALSE

                        TOTAL ATOM NUMBER = 2

 CARTESIAN COORDINATES ( UNIT = 1.88973 Bohr ).
         atom                   x                   y                   z                 mag                  vx                  vy                  vz
      tauc_C1          1.16161889      0.742068678001         0.501843029                   0                   0                   0                   0
      tauc_C2                   0                   0                   0                   0                   0                   0                   0


 READING ORBITAL FILE NAMES FOR LCAO
 orbital file: /root/Orb_SG15_DZP_E60_Standard_v1.0/C_gga_8au_60Ry_2s2p1d.orb

                          Volume (Bohr^3) = 77.0006657172
                             Volume (A^3) = 11.4103077898

 Lattice vectors: (Cartesian coordinate: in unit of a_0)
        +2.5269944668                  +0                  +0
        +1.2634972334       +2.1884414035                  +0
        +1.2634972334       +0.7294804678       +2.0632823422
 Reciprocal vectors: (Cartesian coordinate: in unit of 2 pi/a_0)
      +0.395727023996     -0.228473103826     -0.161554881038
                   +0     +0.456946207653     -0.161554881026
                   +0                  -0     +0.484664643102




 >>>>>>>>>>>>>>>>>>>>>>>>>>>>>>>>>>>>>>>>>>>>>>>>>>>>>>>>>>>>>>>>>>>>>>
 |                                                                    |
 | Reading pseudopotentials files:                                    |
 | The pseudopotential file is in UPF format. The 'NC' indicates that |
 | the type of pseudopotential is 'norm conserving'. Functional of    |
 | exchange and correlation is decided by 4 given parameters in UPF   |
 | file.  We also read in the 'core correction' if there exists.      |
 | Also we can read the valence electrons number and the maximal      |
 | angular momentum used in this pseudopotential. We also read in the |
 | trail wave function, trail atomic density and local-pseudopotential|
 | on logrithmic grid. The non-local pseudopotential projector is also|
 | read in if there is any.                                           |
 |                                                                    |
 <<<<<<<<<<<<<<<<<<<<<<<<<<<<<<<<<<<<<<<<<<<<<<<<<<<<<<<<<<<<<<<<<<<<<<




                PAO radial cut off (Bohr) = 15

 Read in pseudopotential file is /root/SG15_ONCV_v1.0_upf/C_ONCV_PBE-1.0.upf
                     pseudopotential type = NC
                            functional Ex = PBE
                            functional Ec = 
                          functional GCEx = 
                          functional GCEc = 
                 nonlocal core correction = 0
                        valence electrons = 4
                                     lmax = 1
                           number of zeta = 0
                     number of projectors = 4
                           L of projector = 0
                           L of projector = 0
                           L of projector = 1
                           L of projector = 1

 XC functional updated to : 
                            functional Ex = PBE
                            functional Ec = 
                          functional GCEx = 
                          functional GCEc = 
     initial pseudo atomic orbital number = 0
                                   NLOCAL = 26

 SETUP THE ELECTRONS NUMBER
             electron number of element C = 4
       total electron number of element C = 8
                           occupied bands = 4
                                   NLOCAL = 26
                                   NBANDS = 14
                                   NBANDS = 14
 DONE : SETUP UNITCELL Time : 0.017783944631 (SEC)





 >>>>>>>>>>>>>>>>>>>>>>>>>>>>>>>>>>>>>>>>>>>>>>>>>>>>>>>>>>>>>>>>>>>>>>
 |                                                                    |
 | Setup K-points                                                     |
 | We setup the k-points according to input parameters.               |
 | The reduced k-points are set according to symmetry operations.     |
 | We treat the spin as another set of k-points.                      |
 |                                                                    |
 <<<<<<<<<<<<<<<<<<<<<<<<<<<<<<<<<<<<<<<<<<<<<<<<<<<<<<<<<<<<<<<<<<<<<<





 SETUP K-POINTS
                                    nspin = 1
                   Input type of k points = Monkhorst-Pack(Gamma)
                                   nkstot = 64

  KPOINTS            DIRECT_X            DIRECT_Y            DIRECT_Z              WEIGHT
        1                   0                   0                   0            0.015625
        2                0.25                   0                   0            0.015625
        3                 0.5                   0                   0            0.015625
        4                0.75                   0                   0            0.015625
        5                   0                0.25                   0            0.015625
        6                0.25                0.25                   0            0.015625
        7                 0.5                0.25                   0            0.015625
        8                0.75                0.25                   0            0.015625
        9                   0                 0.5                   0            0.015625
       10                0.25                 0.5                   0            0.015625
       11                 0.5                 0.5                   0            0.015625
       12                0.75                 0.5                   0            0.015625
       13                   0                0.75                   0            0.015625
       14                0.25                0.75                   0            0.015625
       15                 0.5                0.75                   0            0.015625
       16                0.75                0.75                   0            0.015625
       17                   0                   0                0.25            0.015625
       18                0.25                   0                0.25            0.015625
       19                 0.5                   0                0.25            0.015625
       20                0.75                   0                0.25            0.015625
       21                   0                0.25                0.25            0.015625
       22                0.25                0.25                0.25            0.015625
       23                 0.5                0.25                0.25            0.015625
       24                0.75                0.25                0.25            0.015625
       25                   0                 0.5                0.25            0.015625
       26                0.25                 0.5                0.25            0.015625
       27                 0.5                 0.5                0.25            0.015625
       28                0.75                 0.5                0.25            0.015625
       29                   0                0.75                0.25            0.015625
       30                0.25                0.75                0.25            0.015625
       31                 0.5                0.75                0.25            0.015625
       32                0.75                0.75                0.25            0.015625
       33                   0                   0                 0.5            0.015625
       34                0.25                   0                 0.5            0.015625
       35                 0.5                   0                 0.5            0.015625
       36                0.75                   0                 0.5            0.015625
       37                   0                0.25                 0.5            0.015625
       38                0.25                0.25                 0.5            0.015625
       39                 0.5                0.25                 0.5            0.015625
       40                0.75                0.25                 0.5            0.015625
       41                   0                 0.5                 0.5            0.015625
       42                0.25                 0.5                 0.5            0.015625
       43                 0.5                 0.5                 0.5            0.015625
       44                0.75                 0.5                 0.5            0.015625
       45                   0                0.75                 0.5            0.015625
       46                0.25                0.75                 0.5            0.015625
       47                 0.5                0.75                 0.5            0.015625
       48                0.75                0.75                 0.5            0.015625
       49                   0                   0                0.75            0.015625
       50                0.25                   0                0.75            0.015625
       51                 0.5                   0                0.75            0.015625
       52                0.75                   0                0.75            0.015625
       53                   0                0.25                0.75            0.015625
       54                0.25                0.25                0.75            0.015625
       55                 0.5                0.25                0.75            0.015625
       56                0.75                0.25                0.75            0.015625
       57                   0                 0.5                0.75            0.015625
       58                0.25                 0.5                0.75            0.015625
       59                 0.5                 0.5                0.75            0.015625
       60                0.75                 0.5                0.75            0.015625
       61                   0                0.75                0.75            0.015625
       62                0.25                0.75                0.75            0.015625
       63                 0.5                0.75                0.75            0.015625
       64                0.75                0.75                0.75            0.015625

           k-point number in this process = 64
       minimum distributed K point number = 64

  KPOINTS         CARTESIAN_X         CARTESIAN_Y         CARTESIAN_Z              WEIGHT
        1                   0                   0                   0             0.03125
        2     0.0989317559989    -0.0571182759566    -0.0403887202594             0.03125
        3      0.197863511998     -0.114236551913    -0.0807774405188             0.03125
        4      0.296795267997      -0.17135482787     -0.121166160778             0.03125
        5                   0      0.114236551913    -0.0403887202566             0.03125
        6     0.0989317559989     0.0571182759566     -0.080777440516             0.03125
        7      0.197863511998                   0     -0.121166160775             0.03125
        8      0.296795267997    -0.0571182759566     -0.161554881035             0.03125
        9                   0      0.228473103826    -0.0807774405132             0.03125
       10     0.0989317559989       0.17135482787     -0.121166160773             0.03125
       11      0.197863511998      0.114236551913     -0.161554881032             0.03125
       12      0.296795267997     0.0571182759566     -0.201943601291             0.03125
       13                   0       0.34270965574      -0.12116616077             0.03125
       14     0.0989317559989      0.285591379783     -0.161554881029             0.03125
       15      0.197863511998      0.228473103826     -0.201943601289             0.03125
       16      0.296795267997       0.17135482787     -0.242332321548             0.03125
       17                   0                   0      0.121166160775             0.03125
       18     0.0989317559989    -0.0571182759566      0.080777440516             0.03125
       19      0.197863511998     -0.114236551913     0.0403887202566             0.03125
       20      0.296795267997      -0.17135482787                   0             0.03125
       21                   0      0.114236551913     0.0807774405188             0.03125
       22     0.0989317559989     0.0571182759566     0.0403887202594             0.03125
       23      0.197863511998                   0                   0             0.03125
       24      0.296795267997    -0.0571182759566    -0.0403887202594             0.03125
       25                   0      0.228473103826     0.0403887202621             0.03125
       26     0.0989317559989       0.17135482787                   0             0.03125
       27      0.197863511998      0.114236551913    -0.0403887202566             0.03125
       28      0.296795267997     0.0571182759566     -0.080777440516             0.03125
       29                   0       0.34270965574                   0             0.03125
       30     0.0989317559989      0.285591379783    -0.0403887202538             0.03125
       31      0.197863511998      0.228473103826    -0.0807774405132             0.03125
       32      0.296795267997       0.17135482787     -0.121166160773             0.03125
       33                   0                   0      0.242332321551             0.03125
       34     0.0989317559989    -0.0571182759566      0.201943601291             0.03125
       35      0.197863511998     -0.114236551913      0.161554881032             0.03125
       36      0.296795267997      -0.17135482787      0.121166160773             0.03125
       37                   0      0.114236551913      0.201943601294             0.03125
       38     0.0989317559989     0.0571182759566      0.161554881035             0.03125
       39      0.197863511998                   0      0.121166160775             0.03125
       40      0.296795267997    -0.0571182759566      0.080777440516             0.03125
       41                   0      0.228473103826      0.161554881038             0.03125
       42     0.0989317559989       0.17135482787      0.121166160778             0.03125
       43      0.197863511998      0.114236551913     0.0807774405188             0.03125
       44      0.296795267997     0.0571182759566     0.0403887202594             0.03125
       45                   0       0.34270965574      0.121166160781             0.03125
       46     0.0989317559989      0.285591379783     0.0807774405215             0.03125
       47      0.197863511998      0.228473103826     0.0403887202621             0.03125
       48      0.296795267997       0.17135482787                   0             0.03125
       49                   0                   0      0.363498482326             0.03125
       50     0.0989317559989    -0.0571182759566      0.323109762067             0.03125
       51      0.197863511998     -0.114236551913      0.282721041807             0.03125
       52      0.296795267997      -0.17135482787      0.242332321548             0.03125
       53                   0      0.114236551913       0.32310976207             0.03125
       54     0.0989317559989     0.0571182759566       0.28272104181             0.03125
       55      0.197863511998                   0      0.242332321551             0.03125
       56      0.296795267997    -0.0571182759566      0.201943601291             0.03125
       57                   0      0.228473103826      0.282721041813             0.03125
       58     0.0989317559989       0.17135482787      0.242332321554             0.03125
       59      0.197863511998      0.114236551913      0.201943601294             0.03125
       60      0.296795267997     0.0571182759566      0.161554881035             0.03125
       61                   0       0.34270965574      0.242332321556             0.03125
       62     0.0989317559989      0.285591379783      0.201943601297             0.03125
       63      0.197863511998      0.228473103826      0.161554881038             0.03125
       64      0.296795267997       0.17135482787      0.121166160778             0.03125

  KPOINTS            DIRECT_X            DIRECT_Y            DIRECT_Z              WEIGHT
        1                   0                   0                   0             0.03125
        2                0.25                   0                   0             0.03125
        3                 0.5                   0                   0             0.03125
        4                0.75                   0                   0             0.03125
        5                   0                0.25                   0             0.03125
        6                0.25                0.25                   0             0.03125
        7                 0.5                0.25                   0             0.03125
        8                0.75                0.25                   0             0.03125
        9                   0                 0.5                   0             0.03125
       10                0.25                 0.5                   0             0.03125
       11                 0.5                 0.5                   0             0.03125
       12                0.75                 0.5                   0             0.03125
       13                   0                0.75                   0             0.03125
       14                0.25                0.75                   0             0.03125
       15                 0.5                0.75                   0             0.03125
       16                0.75                0.75                   0             0.03125
       17                   0                   0                0.25             0.03125
       18                0.25                   0                0.25             0.03125
       19                 0.5                   0                0.25             0.03125
       20                0.75                   0                0.25             0.03125
       21                   0                0.25                0.25             0.03125
       22                0.25                0.25                0.25             0.03125
       23                 0.5                0.25                0.25             0.03125
       24                0.75                0.25                0.25             0.03125
       25                   0                 0.5                0.25             0.03125
       26                0.25                 0.5                0.25             0.03125
       27                 0.5                 0.5                0.25             0.03125
       28                0.75                 0.5                0.25             0.03125
       29                   0                0.75                0.25             0.03125
       30                0.25                0.75                0.25             0.03125
       31                 0.5                0.75                0.25             0.03125
       32                0.75                0.75                0.25             0.03125
       33                   0                   0                 0.5             0.03125
       34                0.25                   0                 0.5             0.03125
       35                 0.5                   0                 0.5             0.03125
       36                0.75                   0                 0.5             0.03125
       37                   0                0.25                 0.5             0.03125
       38                0.25                0.25                 0.5             0.03125
       39                 0.5                0.25                 0.5             0.03125
       40                0.75                0.25                 0.5             0.03125
       41                   0                 0.5                 0.5             0.03125
       42                0.25                 0.5                 0.5             0.03125
       43                 0.5                 0.5                 0.5             0.03125
       44                0.75                 0.5                 0.5             0.03125
       45                   0                0.75                 0.5             0.03125
       46                0.25                0.75                 0.5             0.03125
       47                 0.5                0.75                 0.5             0.03125
       48                0.75                0.75                 0.5             0.03125
       49                   0                   0                0.75             0.03125
       50                0.25                   0                0.75             0.03125
       51                 0.5                   0                0.75             0.03125
       52                0.75                   0                0.75             0.03125
       53                   0                0.25                0.75             0.03125
       54                0.25                0.25                0.75             0.03125
       55                 0.5                0.25                0.75             0.03125
       56                0.75                0.25                0.75             0.03125
       57                   0                 0.5                0.75             0.03125
       58                0.25                 0.5                0.75             0.03125
       59                 0.5                 0.5                0.75             0.03125
       60                0.75                 0.5                0.75             0.03125
       61                   0                0.75                0.75             0.03125
       62                0.25                0.75                0.75             0.03125
       63                 0.5                0.75                0.75             0.03125
       64                0.75                0.75                0.75             0.03125
 DONE : INIT K-POINTS Time : 0.0186941307634 (SEC)





 >>>>>>>>>>>>>>>>>>>>>>>>>>>>>>>>>>>>>>>>>>>>>>>>>>>>>>>>>>>>>>>>>>>>>>
 |                                                                    |
 | Setup numerical orbitals:                                          |
 | This part setup: numerical atomic orbitals, non-local projectors   |
 | and neutral potential (1D). The atomic orbitals information        |
 | including the radius, angular momentum and zeta number.            |
 | The neutral potential is the sum of local part of pseudopotential  |
 | and potential given by atomic charge, they will cancel out beyond  |
 | a certain radius cutoff, because the Z/r character.                |
 |                                                                    |
 <<<<<<<<<<<<<<<<<<<<<<<<<<<<<<<<<<<<<<<<<<<<<<<<<<<<<<<<<<<<<<<<<<<<<<





 SETUP ONE DIMENSIONAL ORBITALS/POTENTIAL
                        delta k  (1/Bohr) = 0.01
                        delta r    (Bohr) = 0.01
                        dr_uniform (Bohr) = 0.001
                        rmax       (Bohr) = 30
                                    kmesh = 779
      ORBITAL  L  N      nr      dr    RCUT  CHECK_UNIT    NEW_UNIT
            1  0  0     801    0.01       8           1           1
            2  0  1     801    0.01       8           1           1
            3  1  0     801    0.01       8           1           1
            4  1  1     801    0.01       8           1           1
            5  2  0     801    0.01       8           1           1
   DESCRIPTOR  L  N      nr      dr    RCUT  CHECK_UNIT    NEW_UNIT
            1  0  0     505    0.01    5.04        6.33           1
            2  0  1     505    0.01    5.04        1.58           1
            3  0  2     505    0.01    5.04       0.704           1
            4  0  3     505    0.01    5.04       0.396           1
            5  0  4     505    0.01    5.04       0.253           1
            6  0  5     505    0.01    5.04       0.176           1
            7  0  6     505    0.01    5.04       0.129           1
            8  0  7     505    0.01    5.04       0.099           1
            9  0  8     505    0.01    5.04      0.0782           1
           10  0  9     505    0.01    5.04      0.0633           1
           11  0 10     505    0.01    5.04      0.0524           1
           12  0 11     505    0.01    5.04       0.044           1
           13  0 12     505    0.01    5.04      0.0375           1
           14  0 13     505    0.01    5.04      0.0323           1
           15  0 14     505    0.01    5.04      0.0282           1
           16  1  0     505    0.01    5.04        2.95           1
           17  1  1     505    0.01    5.04        1.03           1
           18  1  2     505    0.01    5.04       0.521           1
           19  1  3     505    0.01    5.04       0.314           1
           20  1  4     505    0.01    5.04        0.21           1
           21  1  5     505    0.01    5.04        0.15           1
           22  1  6     505    0.01    5.04       0.113           1
           23  1  7     505    0.01    5.04      0.0878           1
           24  1  8     505    0.01    5.04      0.0703           1
           25  1  9     505    0.01    5.04      0.0575           1
           26  1 10     505    0.01    5.04      0.0479           1
           27  1 11     505    0.01    5.04      0.0406           1
           28  1 12     505    0.01    5.04      0.0348           1
           29  1 13     505    0.01    5.04      0.0302           1
           30  1 14     505    0.01    5.04      0.0264           1
           31  2  0     505    0.01    5.04        1.71           1
           32  2  1     505    0.01    5.04       0.728           1
           33  2  2     505    0.01    5.04       0.403           1
           34  2  3     505    0.01    5.04       0.256           1
           35  2  4     505    0.01    5.04       0.177           1
           36  2  5     505    0.01    5.04        0.13           1
           37  2  6     505    0.01    5.04      0.0994           1
           38  2  7     505    0.01    5.04      0.0785           1
           39  2  8     505    0.01    5.04      0.0635           1
           40  2  9     505    0.01    5.04      0.0525           1
           41  2 10     505    0.01    5.04      0.0441           1
           42  2 11     505    0.01    5.04      0.0376           1
           43  2 12     505    0.01    5.04      0.0324           1
           44  2 13     505    0.01    5.04      0.0282           1
           45  2 14     505    0.01    5.04      0.0248           1
 max number of nonlocal projetors among all species is 4

 SETUP THE TWO-CENTER INTEGRATION TABLES

 SETUP THE DIVISION OF H/S MATRIX
 divide the H&S matrix using 2D block algorithms.
                                     nb2d = 1
                  trace_loc_row dimension = 26
                  trace_loc_col dimension = 26
                                     nloc = 91
 Initialize the descriptor index for DeePKS (lcao line)
 lmax of descriptor = 2
 nmax of descriptor= 15
 total basis (all atoms) for descriptor= 
 Type 1 number_of_atoms 2
 descriptors_per_atom 135
 total_descriptors 270




 >>>>>>>>>>>>>>>>>>>>>>>>>>>>>>>>>>>>>>>>>>>>>>>>>>>>>>>>>>>>>>>>>>>>>>
 |                                                                    |
 | Setup plane waves:                                                 |
 | Use the energy cutoff and the lattice vectors to generate the      |
 | dimensions of FFT grid. The number of FFT grid on each processor   |
 | is 'nrxx'. The number of plane wave basis in reciprocal space is   |
 | different for charege/potential and wave functions. We also set    |
 | the 'sticks' for the parallel of FFT.                              |
 |                                                                    |
 <<<<<<<<<<<<<<<<<<<<<<<<<<<<<<<<<<<<<<<<<<<<<<<<<<<<<<<<<<<<<<<<<<<<<<





 SETUP THE PLANE WAVE BASIS
     energy cutoff for wavefunc (unit:Ry) = 60
            [fft grid for wave functions] = 24, 24, 24
          [fft grid for charge/potential] = 24, 24, 24
                      [fft grid division] = 2, 2, 2
      [big fft grid for charge/potential] = 12, 12, 12
                                     nbxx = 288
                                     nrxx = 2304

 SETUP PLANE WAVES FOR CHARGE/POTENTIAL
                    number of plane waves = 4909
                         number of sticks = 379

 SETUP PLANE WAVES FOR WAVE FUNCTIONS
                    number of plane waves = 965
                         number of sticks = 127

 PARALLEL PW FOR CHARGE/POTENTIAL
     PROC   COLUMNS(POT)             PW
        1             47            614
        2             48            614
        3             48            615
        4             48            614
        5             47            613
        6             47            613
        7             47            613
        8             47            613
 --------------- sum -------------------
        8            379           4909

 PARALLEL PW FOR WAVE FUNCTIONS
     PROC     COLUMNS(W)             PW
        1             15            121
        2             15            121
        3             15            121
        4             17            120
        5             16            121
        6             17            120
        7             15            121
        8             17            120
 --------------- sum -------------------
        8            127            965

 SETUP COORDINATES OF PLANE WAVES
              number of total plane waves = 4909

 SETUP COORDINATES OF PLANE WAVES
                            number of |g| = 92
                                  max |g| = 21.6
                                  min |g| = 0
 DONE : INIT PLANEWAVE Time : 2.85 (SEC)

 DONE : INIT CHARGE Time : 2.85 (SEC)

 DONE : INIT POTENTIAL Time : 2.85 (SEC)

                                start_pot = atomic

 -------------------------------------------
 SELF-CONSISTENT
 -------------------------------------------




 >>>>>>>>>>>>>>>>>>>>>>>>>>>>>>>>>>>>>>>>>>>>>>>>>>>>>>>>>>>>>>>>>>>>>>
 |                                                                    |
 | Search adjacent atoms:                                             |
 | Set the adjacent atoms for each atom and set the periodic boundary |
 | condition for the atoms on real space FFT grid. For k-dependent    |
 | algorithm, we also need to set the sparse H and S matrix element   |
 | for each atom.                                                     |
 |                                                                    |
 <<<<<<<<<<<<<<<<<<<<<<<<<<<<<<<<<<<<<<<<<<<<<<<<<<<<<<<<<<<<<<<<<<<<<<





 SETUP SEARCHING RADIUS FOR PROGRAM TO SEARCH ADJACENT ATOMS
                  longest orb rcut (Bohr) = 8
   longest nonlocal projector rcut (Bohr) = 1.44
              searching radius is (Bohr)) = 18.9
         searching radius unit is (Bohr)) = 1.89

 SETUP EXTENDED REAL SPACE GRID FOR GRID INTEGRATION
                        [real space grid] = 24, 24, 24
               [big cell numbers in grid] = 12, 12, 12
           [meshcell numbers in big cell] = 2, 2, 2
                      [extended fft grid] = 25, 25, 25
              [dimension of extened grid] = 63, 63, 63
                            UnitCellTotal = 343
              Atom number in sub-FFT-grid = 2
    Local orbitals number in sub-FFT-grid = 26
                                      nnr = 24438
                                     nnrg = 151086

 SETUP ARRAY FOR EXTRA WAVE FUNCTIONS
                                     daug = 0
                                nnrg_last = 0
                                 nnrg_now = 151086

 LCAO ALGORITHM ------------- ELEC =    1 --------------------------------
 Memory of pvpR : 1.15 MB

 Density error is 0.153417533728

       Energy                       Rydberg                            eV
   E_KohnSham                -22.7295443985                -309.251316764
     E_Harris                -22.7660951692                -309.748615511
      E_Fermi                +1.09892336578                +14.9516194399

 LCAO ALGORITHM ------------- ELEC =    2 --------------------------------
 Memory of pvpR : 1.15269470215 MB

 Density error is 0.0753499230582

       Energy                       Rydberg                            eV
   E_KohnSham                -22.7408929425                -309.405721626
     E_Harris                -22.7508433458                -309.541103808
      E_Fermi                +1.08055323815                +14.7016810312

 LCAO ALGORITHM ------------- ELEC =    3 --------------------------------
 Memory of pvpR : 1.15269470215 MB

 Density error is 0.011699557984

       Energy                       Rydberg                            eV
   E_KohnSham                -22.7483525384                -309.507214635
     E_Harris                -22.7483098425                -309.506633727
      E_Fermi                +1.11943353555                +15.2306746158

 LCAO ALGORITHM ------------- ELEC =    4 --------------------------------
 Memory of pvpR : 1.15269470215 MB

 Density error is 0.00365311781667

       Energy                       Rydberg                            eV
   E_KohnSham                -22.7500547545                -309.530374473
     E_Harris                -22.7500907907                -309.530864771
      E_Fermi                +1.12504411174                 +15.307010421

 LCAO ALGORITHM ------------- ELEC =    5 --------------------------------
 Memory of pvpR : 1.15269470215 MB

 Density error is 4.90925532831e-05

       Energy                       Rydberg                            eV
   E_KohnSham                -22.7503395855                -309.534249798
     E_Harris                -22.7503395855                -309.534249798
      E_Fermi                 +1.1235496812                +15.2866776505

 LCAO ALGORITHM ------------- ELEC =    6 --------------------------------
 Memory of pvpR : 1.15269470215 MB

 Density error is 4.85772628601e-05

       Energy                       Rydberg                            eV
   E_KohnSham                -22.7502332381                -309.532802867
     E_Harris                -22.7502332432                -309.532802937
      E_Fermi                +1.12343756135                +15.2851521816

 LCAO ALGORITHM ------------- ELEC =    7 --------------------------------
 Memory of pvpR : 1.15269470215 MB

 Density error is 9.97028489457e-06

       Energy                       Rydberg                            eV
   E_KohnSham                -22.7502301074                -309.532760272
     E_Harris                -22.7502301077                -309.532760275
      E_Fermi                +1.12345651147                +15.2854100112

 LCAO ALGORITHM ------------- ELEC =    8 --------------------------------
 Memory of pvpR : 1.15269470215 MB

 Density error is 2.19941228042e-07

       Energy                       Rydberg                            eV
   E_KohnSham                -22.7502308397                -309.532770235
     E_Harris                -22.7502308397                -309.532770235
       E_band                +2.28842663869                +31.1356417412
   E_one_elec                 +7.6590604048                +104.206862831
    E_Hartree                +1.94883778471                +26.5152983497
         E_xc                -7.10762530704                -96.7042034247
      E_Ewald                -25.4917723224                -346.833355704
      E_demet            -1.62756435932e-12            -2.21441491485e-11
      E_descf                            +0                            +0
     E_efield                            +0                            +0
        E_exx                            +0                            +0
     E_DeePKS              -0.0092556039815                -0.12592895258
      E_Fermi                +1.12346272127                +15.2854944998

 charge density convergence is achieved
 final etot is -309.532770235 eV

 STATE ENERGY(eV) AND OCCUPATIONS    NSPIN == 1
 1/64 kpoint (Cartesian) = 0 0 0 (77 pws)
       1       -7.77872      0.0312500
       2        11.0225      0.0312500
       3        12.5825      0.0312500
       4        14.1151      0.0312500
       5        16.9158        0.00000
       6        18.1983        0.00000
       7        19.9061        0.00000
       8        26.9114        0.00000
       9        37.2819        0.00000
      10        43.0530        0.00000
      11        43.1153        0.00000
      12        50.2222        0.00000
      13        53.8634        0.00000
      14        58.2548        0.00000

 2/64 kpoint (Cartesian) = 0.0989318 -0.0571183 -0.0403887 (79 pws)
       1       -7.80804      0.0312500
       2        7.26472      0.0312500
       3        9.90148      0.0312500
       4        11.2343      0.0312500
       5        19.6769        0.00000
       6        20.6671        0.00000
       7        21.9803        0.00000
       8        27.7166        0.00000
       9        38.4974        0.00000
      10        40.8583        0.00000
      11        41.2961        0.00000
      12        49.8813        0.00000
      13        59.0454        0.00000
      14        59.9392        0.00000

 3/64 kpoint (Cartesian) = 0.197864 -0.114237 -0.0807774 (81 pws)
       1       -2.70191      0.0312500
       2       -1.60892      0.0312500
       3        8.98290      0.0312500
       4        10.3238      0.0312500
       5        20.1528        0.00000
       6        21.5708        0.00000
       7        22.8018        0.00000
       8        28.8840        0.00000
       9        38.2977        0.00000
      10        44.1673        0.00000
      11        46.3331        0.00000
      12        48.3773        0.00000
      13        51.6973        0.00000
      14        52.0207        0.00000

 4/64 kpoint (Cartesian) = 0.296795 -0.171355 -0.121166 (79 pws)
       1       -7.80804      0.0312500
       2        7.26472      0.0312500
       3        9.90148      0.0312500
       4        11.2343      0.0312500
       5        19.6769        0.00000
       6        20.6671        0.00000
       7        21.9803        0.00000
       8        27.7166        0.00000
       9        38.4974        0.00000
      10        40.8583        0.00000
      11        41.2961        0.00000
      12        49.8813        0.00000
      13        59.0454        0.00000
      14        59.9392        0.00000

 5/64 kpoint (Cartesian) = 0.00000 0.114237 -0.0403887 (77 pws)
       1       -7.75465      0.0312500
       2        6.62169      0.0312500
       3        10.0337      0.0312500
       4        12.0622      0.0312500
       5        19.1332        0.00000
       6        20.8004        0.00000
       7        22.8227        0.00000
       8        28.3076        0.00000
       9        37.0854        0.00000
      10        39.7928        0.00000
      11        40.7409        0.00000
      12        52.9920        0.00000
      13        58.5415        0.00000
      14        59.1214        0.00000

 6/64 kpoint (Cartesian) = 0.0989318 0.0571183 -0.0807774 (78 pws)
       1       -7.34709      0.0312500
       2        7.79848      0.0312500
       3        8.73091      0.0312500
       4        9.67843      0.0312500
       5        17.7568        0.00000
       6        23.3402        0.00000
       7        24.8017        0.00000
       8        25.6091        0.00000
       9        35.0714        0.00000
      10        38.8521        0.00000
      11        46.6237        0.00000
      12        56.2788        0.00000
      13        56.9125        0.00000
      14        58.1266        0.00000

 7/64 kpoint (Cartesian) = 0.197864 0.00000 -0.121166 (81 pws)
       1       -3.01655      0.0312500
       2        2.71649      0.0312500
       3        6.11716      0.0312500
       4        7.67770      0.0312500
       5        19.1734        0.00000
       6        24.7966        0.00000
       7        26.1841        0.00000
       8        26.3915        0.00000
       9        34.3551        0.00000
      10        40.2326        0.00000
      11        45.4450        0.00000
      12        55.0605        0.00000
      13        55.6631        0.00000
      14        63.2091        0.00000

 8/64 kpoint (Cartesian) = 0.296795 -0.0571183 -0.161555 (79 pws)
       1       -5.09338      0.0312500
       2        5.04596      0.0312500
       3        5.55965      0.0312500
       4        9.19099      0.0312500
       5        20.5535        0.00000
       6        24.1896        0.00000
       7        24.5901        0.00000
       8        27.2924        0.00000
       9        35.1092        0.00000
      10        37.5588        0.00000
      11        42.5292        0.00000
      12        59.4056        0.00000
      13        59.7238        0.00000
      14        60.5888        0.00000

 9/64 kpoint (Cartesian) = 0.00000 0.228473 -0.0807774 (79 pws)
       1       -2.42051      0.0312500
       2       -1.86108      0.0312500
       3        8.93116      0.0312500
       4        11.0407      0.0312500
       5        19.8065        0.00000
       6        21.7284        0.00000
       7        24.0814        0.00000
       8        30.3120        0.00000
       9        35.9807        0.00000
      10        42.1780        0.00000
      11        46.1407        0.00000
      12        49.7077        0.00000
      13        50.4338        0.00000
      14        51.2260        0.00000

 10/64 kpoint (Cartesian) = 0.0989318 0.171355 -0.121166 (78 pws)
       1       -2.96203      0.0312500
       2        2.31334      0.0312500
       3        6.77003      0.0312500
       4        7.64309      0.0312500
       5        19.0100        0.00000
       6        24.2541        0.00000
       7        27.3848        0.00000
       8        27.5546        0.00000
       9        33.3593        0.00000
      10        39.8505        0.00000
      11        43.8778        0.00000
      12        53.5201        0.00000
      13        55.0259        0.00000
      14        64.4933        0.00000

 11/64 kpoint (Cartesian) = 0.197864 0.114237 -0.161555 (79 pws)
       1       0.314957      0.0312500
       2       0.472689      0.0312500
       3        6.16140      0.0312500
       4        6.78790      0.0312500
       5        18.0922        0.00000
       6        18.6019        0.00000
       7        29.5531        0.00000
       8        30.7306        0.00000
       9        36.6383        0.00000
      10        39.3981        0.00000
      11        48.9598        0.00000
      12        50.5694        0.00000
      13        57.4347        0.00000
      14        60.6033        0.00000

 12/64 kpoint (Cartesian) = 0.296795 0.0571183 -0.201944 (79 pws)
       1       -2.96203      0.0312500
       2        2.31334      0.0312500
       3        6.77003      0.0312500
       4        7.64309      0.0312500
       5        19.0100        0.00000
       6        24.2541        0.00000
       7        27.3848        0.00000
       8        27.5546        0.00000
       9        33.3593        0.00000
      10        39.8505        0.00000
      11        43.8778        0.00000
      12        53.5201        0.00000
      13        55.0259        0.00000
      14        64.4933        0.00000

 13/64 kpoint (Cartesian) = 0.00000 0.342710 -0.121166 (77 pws)
       1       -7.75465      0.0312500
       2        6.62169      0.0312500
       3        10.0337      0.0312500
       4        12.0622      0.0312500
       5        19.1332        0.00000
       6        20.8004        0.00000
       7        22.8227        0.00000
       8        28.3076        0.00000
       9        37.0854        0.00000
      10        39.7928        0.00000
      11        40.7409        0.00000
      12        52.9920        0.00000
      13        58.5415        0.00000
      14        59.1214        0.00000

 14/64 kpoint (Cartesian) = 0.0989318 0.285591 -0.161555 (78 pws)
       1       -5.09338      0.0312500
       2        5.04596      0.0312500
       3        5.55965      0.0312500
       4        9.19099      0.0312500
       5        20.5535        0.00000
       6        24.1896        0.00000
       7        24.5901        0.00000
       8        27.2924        0.00000
       9        35.1092        0.00000
      10        37.5588        0.00000
      11        42.5292        0.00000
      12        59.4056        0.00000
      13        59.7238        0.00000
      14        60.5888        0.00000

 15/64 kpoint (Cartesian) = 0.197864 0.228473 -0.201944 (81 pws)
       1       -3.01655      0.0312500
       2        2.71649      0.0312500
       3        6.11716      0.0312500
       4        7.67770      0.0312500
       5        19.1734        0.00000
       6        24.7966        0.00000
       7        26.1841        0.00000
       8        26.3915        0.00000
       9        34.3551        0.00000
      10        40.2326        0.00000
      11        45.4450        0.00000
      12        55.0605        0.00000
      13        55.6631        0.00000
      14        63.2091        0.00000

 16/64 kpoint (Cartesian) = 0.296795 0.171355 -0.242332 (77 pws)
       1       -7.34709      0.0312500
       2        7.79848      0.0312500
       3        8.73091      0.0312500
       4        9.67843      0.0312500
       5        17.7568        0.00000
       6        23.3402        0.00000
       7        24.8017        0.00000
       8        25.6091        0.00000
       9        35.0714        0.00000
      10        38.8521        0.00000
      11        46.6237        0.00000
      12        56.2788        0.00000
      13        56.9125        0.00000
      14        58.1266        0.00000

 17/64 kpoint (Cartesian) = 0.00000 0.00000 0.121166 (75 pws)
       1       -7.77727      0.0312500
       2        6.82619      0.0312500
       3        9.81664      0.0312500
       4        12.0177      0.0312500
       5        18.9709        0.00000
       6        21.0579        0.00000
       7        22.5927        0.00000
       8        28.1148        0.00000
       9        37.4212        0.00000
      10        39.9113        0.00000
      11        41.2184        0.00000
      12        51.7797        0.00000
      13        58.5140        0.00000
      14        59.5666        0.00000

 18/64 kpoint (Cartesian) = 0.0989318 -0.0571183 0.0807774 (77 pws)
       1       -7.36552      0.0312500
       2        7.82574      0.0312500
       3        8.80299      0.0312500
       4        9.51707      0.0312500
       5        17.8387        0.00000
       6        23.5486        0.00000
       7        24.6959        0.00000
       8        25.5062        0.00000
       9        34.7291        0.00000
      10        39.2726        0.00000
      11        46.6178        0.00000
      12        55.9246        0.00000
      13        56.2474        0.00000
      14        58.4547        0.00000

 19/64 kpoint (Cartesian) = 0.197864 -0.114237 0.0403887 (81 pws)
       1       -3.02940      0.0312500
       2        2.69405      0.0312500
       3        6.36618      0.0312500
       4        7.38754      0.0312500
       5        19.1212        0.00000
       6        25.1271        0.00000
       7        25.8973        0.00000
       8        26.6935        0.00000
       9        33.9396        0.00000
      10        40.6433        0.00000
      11        44.9241        0.00000
      12        55.1743        0.00000
      13        55.5923        0.00000
      14        62.9168        0.00000

 20/64 kpoint (Cartesian) = 0.296795 -0.171355 0.00000 (80 pws)
       1       -5.09553      0.0312500
       2        5.22754      0.0312500
       3        5.57372      0.0312500
       4        8.86692      0.0312500
       5        20.6623        0.00000
       6        24.0901        0.00000
       7        24.4630        0.00000
       8        27.2686        0.00000
       9        35.4740        0.00000
      10        37.2954        0.00000
      11        42.7215        0.00000
      12        59.5372        0.00000
      13        59.7915        0.00000
      14        60.1909        0.00000

 21/64 kpoint (Cartesian) = 0.00000 0.114237 0.0807774 (76 pws)
       1       -7.33048      0.0312500
       2        7.80538      0.0312500
       3        8.62256      0.0312500
       4        9.83620      0.0312500
       5        17.6740        0.00000
       6        23.4220        0.00000
       7        24.4221        0.00000
       8        25.9121        0.00000
       9        35.4675        0.00000
      10        38.3914        0.00000
      11        46.6372        0.00000
      12        56.8790        0.00000
      13        57.1941        0.00000
      14        58.2469        0.00000

 22/64 kpoint (Cartesian) = 0.0989318 0.0571183 0.0403887 (79 pws)
       1       -7.68970      0.0312500
       2        6.25338      0.0312500
       3        10.6158      0.0312500
       4        11.8416      0.0312500
       5        19.7472        0.00000
       6        21.2939        0.00000
       7        22.0375        0.00000
       8        28.7193        0.00000
       9        36.8092        0.00000
      10        39.0884        0.00000
      11        39.8083        0.00000
      12        56.2060        0.00000
      13        58.2357        0.00000
      14        58.6446        0.00000

 23/64 kpoint (Cartesian) = 0.197864 0.00000 0.00000 (79 pws)
       1       -5.07770      0.0312500
       2        4.67661      0.0312500
       3        5.66879      0.0312500
       4        9.62945      0.0312500
       5        21.2809        0.00000
       6        23.0401        0.00000
       7        25.3211        0.00000
       8        27.2315        0.00000
       9        34.8530        0.00000
      10        37.4930        0.00000
      11        42.2517        0.00000
      12        58.4286        0.00000
      13        59.4812        0.00000
      14        61.4833        0.00000

 24/64 kpoint (Cartesian) = 0.296795 -0.0571183 -0.0403887 (82 pws)
       1       -3.00065      0.0312500
       2        2.75918      0.0312500
       3        5.85208      0.0312500
       4        7.94389      0.0312500
       5        19.7373        0.00000
       6        23.9059        0.00000
       7        25.1941        0.00000
       8        27.1927        0.00000
       9        35.2776        0.00000
      10        39.4072        0.00000
      11        46.3618        0.00000
      12        54.9935        0.00000
      13        55.8935        0.00000
      14        63.6910        0.00000

 25/64 kpoint (Cartesian) = 0.00000 0.228473 0.0403887 (77 pws)
       1       -2.93920      0.0312500
       2        2.34337      0.0312500
       3        6.24836      0.0312500
       4        8.26092      0.0312500
       5        19.0086        0.00000
       6        24.7022        0.00000
       7        26.6975        0.00000
       8        26.9958        0.00000
       9        34.2360        0.00000
      10        38.9790        0.00000
      11        45.2604        0.00000
      12        53.7075        0.00000
      13        54.8115        0.00000
      14        65.7200        0.00000

 26/64 kpoint (Cartesian) = 0.0989318 0.171355 0.00000 (80 pws)
       1       -5.04354      0.0312500
       2        4.42068      0.0312500
       3        5.50707      0.0312500
       4        10.4618      0.0312500
       5        21.0146        0.00000
       6        22.7470        0.00000
       7        26.7081        0.00000
       8        27.5461        0.00000
       9        33.1979        0.00000
      10        37.8532        0.00000
      11        41.3007        0.00000
      12        58.3448        0.00000
      13        59.9800        0.00000
      14        61.7699        0.00000

 27/64 kpoint (Cartesian) = 0.197864 0.114237 -0.0403887 (79 pws)
       1       -2.91114      0.0312500
       2        2.12745      0.0312500
       3        6.50044      0.0312500
       4        8.28684      0.0312500
       5        19.6560        0.00000
       6        24.3758        0.00000
       7        26.2378        0.00000
       8        27.3353        0.00000
       9        34.4422        0.00000
      10        38.4162        0.00000
      11        45.2084        0.00000
      12        52.6818        0.00000
      13        54.7087        0.00000
      14        66.7443        0.00000

 28/64 kpoint (Cartesian) = 0.296795 0.0571183 -0.0807774 (81 pws)
       1        1.54619      0.0312500
       2        1.96069      0.0312500
       3        4.09245      0.0312500
       4        4.59713      0.0312500
       5        22.6100        0.00000
       6        23.7097        0.00000
       7        26.0942        0.00000
       8        26.9949        0.00000
       9        35.1916        0.00000
      10        35.7203        0.00000
      11        48.9551        0.00000
      12        49.3533        0.00000
      13        63.2493        0.00000
      14        64.3820        0.00000

 29/64 kpoint (Cartesian) = 0.00000 0.342710 0.00000 (79 pws)
       1       -5.09018      0.0312500
       2        4.93797      0.0312500
       3        5.24459      0.0312500
       4        9.95935      0.0312500
       5        19.9618        0.00000
       6        24.6430        0.00000
       7        25.1547        0.00000
       8        27.4944        0.00000
       9        33.9843        0.00000
      10        38.1682        0.00000
      11        41.7994        0.00000
      12        59.5633        0.00000
      13        60.2145        0.00000
      14        60.9495        0.00000

 30/64 kpoint (Cartesian) = 0.0989318 0.285591 -0.0403887 (80 pws)
       1       -2.94934      0.0312500
       2        2.38922      0.0312500
       3        5.94130      0.0312500
       4        8.48347      0.0312500
       5        19.9754        0.00000
       6        24.2738        0.00000
       7        25.0949        0.00000
       8        27.1574        0.00000
       9        35.5439        0.00000
      10        38.0663        0.00000
      11        46.5693        0.00000
      12        54.0389        0.00000
      13        54.9659        0.00000
      14        65.9886        0.00000

 31/64 kpoint (Cartesian) = 0.197864 0.228473 -0.0807774 (80 pws)
       1        1.49529      0.0312500
       2        2.16677      0.0312500
       3        3.80674      0.0312500
       4        4.67578      0.0312500
       5        22.7899        0.00000
       6        24.9589        0.00000
       7        25.3845        0.00000
       8        25.8691        0.00000
       9        35.5479        0.00000
      10        35.9506        0.00000
      11        48.7894        0.00000
      12        49.6020        0.00000
      13        62.7105        0.00000
      14        64.0947        0.00000

 32/64 kpoint (Cartesian) = 0.296795 0.171355 -0.121166 (80 pws)
       1       -2.95885      0.0312500
       2        2.50549      0.0312500
       3        5.85335      0.0312500
       4        8.41377      0.0312500
       5        19.7253        0.00000
       6        24.1798        0.00000
       7        25.3580        0.00000
       8        27.1410        0.00000
       9        35.4683        0.00000
      10        38.3483        0.00000
      11        46.5548        0.00000
      12        54.5149        0.00000
      13        54.9591        0.00000
      14        65.4993        0.00000

 33/64 kpoint (Cartesian) = 0.00000 0.00000 0.242332 (79 pws)
       1       -2.51427      0.0312500
       2       -1.76523      0.0312500
       3        8.79082      0.0312500
       4        11.0177      0.0312500
       5        19.5647        0.00000
       6        21.9217        0.00000
       7        23.8057        0.00000
       8        29.8301        0.00000
       9        36.7080        0.00000
      10        42.4567        0.00000
      11        46.6025        0.00000
      12        49.2469        0.00000
      13        50.8437        0.00000
      14        51.2837        0.00000

 34/64 kpoint (Cartesian) = 0.0989318 -0.0571183 0.201944 (80 pws)
       1       -2.99204      0.0312500
       2        2.42007      0.0312500
       3        6.80046      0.0312500
       4        7.38670      0.0312500
       5        18.9865        0.00000
       6        24.4569        0.00000
       7        27.1628        0.00000
       8        27.4571        0.00000
       9        33.2200        0.00000
      10        40.3524        0.00000
      11        43.7978        0.00000
      12        54.0558        0.00000
      13        55.1300        0.00000
      14        63.6965        0.00000

 35/64 kpoint (Cartesian) = 0.197864 -0.114237 0.161555 (81 pws)
       1       0.289385      0.0312500
       2       0.509368      0.0312500
       3        5.96477      0.0312500
       4        6.88002      0.0312500
       5        18.0607        0.00000
       6        18.8163        0.00000
       7        29.1681        0.00000
       8        30.9141        0.00000
       9        36.1079        0.00000
      10        40.1376        0.00000
      11        48.5398        0.00000
      12        50.8399        0.00000
      13        56.9146        0.00000
      14        61.5851        0.00000

 36/64 kpoint (Cartesian) = 0.296795 -0.171355 0.121166 (79 pws)
       1       -2.99204      0.0312500
       2        2.42007      0.0312500
       3        6.80046      0.0312500
       4        7.38670      0.0312500
       5        18.9865        0.00000
       6        24.4569        0.00000
       7        27.1628        0.00000
       8        27.4571        0.00000
       9        33.2200        0.00000
      10        40.3524        0.00000
      11        43.7978        0.00000
      12        54.0558        0.00000
      13        55.1300        0.00000
      14        63.6965        0.00000

 37/64 kpoint (Cartesian) = 0.00000 0.114237 0.201944 (80 pws)
       1       -2.95648      0.0312500
       2        2.47206      0.0312500
       3        6.03852      0.0312500
       4        8.28686      0.0312500
       5        19.0286        0.00000
       6        24.8520        0.00000
       7        26.3715        0.00000
       8        26.7105        0.00000
       9        34.5343        0.00000
      10        39.0541        0.00000
      11        45.7027        0.00000
      12        54.2648        0.00000
      13        54.8676        0.00000
      14        65.1031        0.00000

 38/64 kpoint (Cartesian) = 0.0989318 0.0571183 0.161555 (77 pws)
       1       -5.06036      0.0312500
       2        4.53239      0.0312500
       3        5.47905      0.0312500
       4        10.2796      0.0312500
       5        20.7019        0.00000
       6        23.2931        0.00000
       7        26.2015        0.00000
       8        27.4762        0.00000
       9        33.5978        0.00000
      10        37.9130        0.00000
      11        41.5070        0.00000
      12        58.4749        0.00000
      13        59.9291        0.00000
      14        61.7001        0.00000

 39/64 kpoint (Cartesian) = 0.197864 0.00000 0.121166 (81 pws)
       1       -2.91870      0.0312500
       2        2.14037      0.0312500
       3        6.37088      0.0312500
       4        8.38876      0.0312500
       5        19.9368        0.00000
       6        24.5282        0.00000
       7        25.6792        0.00000
       8        27.1290        0.00000
       9        34.7511        0.00000
      10        38.2683        0.00000
      11        45.6691        0.00000
      12        52.7670        0.00000
      13        54.7477        0.00000
      14        66.5073        0.00000

 40/64 kpoint (Cartesian) = 0.296795 -0.0571183 0.0807774 (82 pws)
       1        1.51140      0.0312500
       2        2.07577      0.0312500
       3        3.93028      0.0312500
       4        4.65076      0.0312500
       5        22.6513        0.00000
       6        24.3685        0.00000
       7        25.5034        0.00000
       8        26.6698        0.00000
       9        35.3200        0.00000
      10        35.9078        0.00000
      11        48.8655        0.00000
      12        49.4801        0.00000
      13        62.9219        0.00000
      14        64.3185        0.00000

 41/64 kpoint (Cartesian) = 0.00000 0.228473 0.161555 (83 pws)
       1       0.315012      0.0312500
       2       0.463982      0.0312500
       3        6.40908      0.0312500
       4        6.63263      0.0312500
       5        18.0373        0.00000
       6        18.5081        0.00000
       7        29.8598        0.00000
       8        30.5895        0.00000
       9        37.7046        0.00000
      10        38.1510        0.00000
      11        49.5600        0.00000
      12        50.0926        0.00000
      13        58.5642        0.00000
      14        59.1125        0.00000

 42/64 kpoint (Cartesian) = 0.0989318 0.171355 0.121166 (80 pws)
       1       -2.91631      0.0312500
       2        2.10441      0.0312500
       3        7.03705      0.0312500
       4        7.71858      0.0312500
       5        19.4510        0.00000
       6        23.9351        0.00000
       7        26.8469        0.00000
       8        28.1653        0.00000
       9        33.7425        0.00000
      10        39.0100        0.00000
      11        43.8837        0.00000
      12        52.4521        0.00000
      13        54.8382        0.00000
      14        66.0769        0.00000

 43/64 kpoint (Cartesian) = 0.197864 0.114237 0.0807774 (78 pws)
       1       -2.16526      0.0312500
       2       -2.12710      0.0312500
       3        9.44661      0.0312500
       4        10.7206      0.0312500
       5        20.7743        0.00000
       6        22.3122        0.00000
       7        23.2908        0.00000
       8        31.5476        0.00000
       9        34.3689        0.00000
      10        41.8607        0.00000
      11        44.5358        0.00000
      12        49.7808        0.00000
      13        49.8084        0.00000
      14        52.1706        0.00000

 44/64 kpoint (Cartesian) = 0.296795 0.0571183 0.0403887 (80 pws)
       1       -2.91631      0.0312500
       2        2.10441      0.0312500
       3        7.03705      0.0312500
       4        7.71858      0.0312500
       5        19.4510        0.00000
       6        23.9351        0.00000
       7        26.8469        0.00000
       8        28.1653        0.00000
       9        33.7425        0.00000
      10        39.0100        0.00000
      11        43.8837        0.00000
      12        52.4521        0.00000
      13        54.8382        0.00000
      14        66.0769        0.00000

 45/64 kpoint (Cartesian) = 0.00000 0.342710 0.121166 (80 pws)
       1       -2.95648      0.0312500
       2        2.47206      0.0312500
       3        6.03852      0.0312500
       4        8.28686      0.0312500
       5        19.0286        0.00000
       6        24.8520        0.00000
       7        26.3715        0.00000
       8        26.7105        0.00000
       9        34.5343        0.00000
      10        39.0541        0.00000
      11        45.7027        0.00000
      12        54.2648        0.00000
      13        54.8676        0.00000
      14        65.1031        0.00000

 46/64 kpoint (Cartesian) = 0.0989318 0.285591 0.0807774 (81 pws)
       1        1.51140      0.0312500
       2        2.07577      0.0312500
       3        3.93028      0.0312500
       4        4.65076      0.0312500
       5        22.6513        0.00000
       6        24.3685        0.00000
       7        25.5034        0.00000
       8        26.6698        0.00000
       9        35.3200        0.00000
      10        35.9078        0.00000
      11        48.8655        0.00000
      12        49.4801        0.00000
      13        62.9219        0.00000
      14        64.3185        0.00000

 47/64 kpoint (Cartesian) = 0.197864 0.228473 0.0403887 (81 pws)
       1       -2.91870      0.0312500
       2        2.14037      0.0312500
       3        6.37088      0.0312500
       4        8.38876      0.0312500
       5        19.9368        0.00000
       6        24.5282        0.00000
       7        25.6792        0.00000
       8        27.1290        0.00000
       9        34.7511        0.00000
      10        38.2683        0.00000
      11        45.6691        0.00000
      12        52.7670        0.00000
      13        54.7477        0.00000
      14        66.5073        0.00000

 48/64 kpoint (Cartesian) = 0.296795 0.171355 0.00000 (78 pws)
       1       -5.06036      0.0312500
       2        4.53239      0.0312500
       3        5.47905      0.0312500
       4        10.2796      0.0312500
       5        20.7019        0.00000
       6        23.2931        0.00000
       7        26.2015        0.00000
       8        27.4762        0.00000
       9        33.5978        0.00000
      10        37.9130        0.00000
      11        41.5070        0.00000
      12        58.4749        0.00000
      13        59.9291        0.00000
      14        61.7001        0.00000

 49/64 kpoint (Cartesian) = 0.00000 0.00000 0.363498 (78 pws)
       1       -7.77727      0.0312500
       2        6.82619      0.0312500
       3        9.81664      0.0312500
       4        12.0177      0.0312500
       5        18.9709        0.00000
       6        21.0579        0.00000
       7        22.5927        0.00000
       8        28.1148        0.00000
       9        37.4212        0.00000
      10        39.9113        0.00000
      11        41.2184        0.00000
      12        51.7797        0.00000
      13        58.5140        0.00000
      14        59.5666        0.00000

 50/64 kpoint (Cartesian) = 0.0989318 -0.0571183 0.323110 (79 pws)
       1       -5.09553      0.0312500
       2        5.22754      0.0312500
       3        5.57372      0.0312500
       4        8.86692      0.0312500
       5        20.6623        0.00000
       6        24.0901        0.00000
       7        24.4630        0.00000
       8        27.2686        0.00000
       9        35.4740        0.00000
      10        37.2954        0.00000
      11        42.7215        0.00000
      12        59.5372        0.00000
      13        59.7915        0.00000
      14        60.1909        0.00000

 51/64 kpoint (Cartesian) = 0.197864 -0.114237 0.282721 (81 pws)
       1       -3.02940      0.0312500
       2        2.69405      0.0312500
       3        6.36618      0.0312500
       4        7.38754      0.0312500
       5        19.1212        0.00000
       6        25.1271        0.00000
       7        25.8973        0.00000
       8        26.6935        0.00000
       9        33.9396        0.00000
      10        40.6433        0.00000
      11        44.9241        0.00000
      12        55.1743        0.00000
      13        55.5923        0.00000
      14        62.9168        0.00000

 52/64 kpoint (Cartesian) = 0.296795 -0.171355 0.242332 (78 pws)
       1       -7.36552      0.0312500
       2        7.82574      0.0312500
       3        8.80299      0.0312500
       4        9.51707      0.0312500
       5        17.8387        0.00000
       6        23.5486        0.00000
       7        24.6959        0.00000
       8        25.5062        0.00000
       9        34.7291        0.00000
      10        39.2726        0.00000
      11        46.6178        0.00000
      12        55.9246        0.00000
      13        56.2474        0.00000
      14        58.4547        0.00000

 53/64 kpoint (Cartesian) = 0.00000 0.114237 0.323110 (78 pws)
       1       -5.09018      0.0312500
       2        4.93797      0.0312500
       3        5.24459      0.0312500
       4        9.95935      0.0312500
       5        19.9618        0.00000
       6        24.6430        0.00000
       7        25.1547        0.00000
       8        27.4944        0.00000
       9        33.9843        0.00000
      10        38.1682        0.00000
      11        41.7994        0.00000
      12        59.5633        0.00000
      13        60.2145        0.00000
      14        60.9495        0.00000

 54/64 kpoint (Cartesian) = 0.0989318 0.0571183 0.282721 (77 pws)
       1       -2.95885      0.0312500
       2        2.50549      0.0312500
       3        5.85335      0.0312500
       4        8.41377      0.0312500
       5        19.7253        0.00000
       6        24.1798        0.00000
       7        25.3580        0.00000
       8        27.1410        0.00000
       9        35.4683        0.00000
      10        38.3483        0.00000
      11        46.5548        0.00000
      12        54.5149        0.00000
      13        54.9591        0.00000
      14        65.4993        0.00000

 55/64 kpoint (Cartesian) = 0.197864 0.00000 0.242332 (81 pws)
       1        1.49529      0.0312500
       2        2.16677      0.0312500
       3        3.80674      0.0312500
       4        4.67578      0.0312500
       5        22.7899        0.00000
       6        24.9589        0.00000
       7        25.3845        0.00000
       8        25.8691        0.00000
       9        35.5479        0.00000
      10        35.9506        0.00000
      11        48.7894        0.00000
      12        49.6020        0.00000
      13        62.7105        0.00000
      14        64.0947        0.00000

 56/64 kpoint (Cartesian) = 0.296795 -0.0571183 0.201944 (81 pws)
       1       -2.94934      0.0312500
       2        2.38922      0.0312500
       3        5.94130      0.0312500
       4        8.48347      0.0312500
       5        19.9754        0.00000
       6        24.2738        0.00000
       7        25.0949        0.00000
       8        27.1574        0.00000
       9        35.5439        0.00000
      10        38.0663        0.00000
      11        46.5693        0.00000
      12        54.0389        0.00000
      13        54.9659        0.00000
      14        65.9886        0.00000

 57/64 kpoint (Cartesian) = 0.00000 0.228473 0.282721 (79 pws)
       1       -2.93920      0.0312500
       2        2.34337      0.0312500
       3        6.24836      0.0312500
       4        8.26092      0.0312500
       5        19.0086        0.00000
       6        24.7022        0.00000
       7        26.6975        0.00000
       8        26.9958        0.00000
       9        34.2360        0.00000
      10        38.9790        0.00000
      11        45.2604        0.00000
      12        53.7075        0.00000
      13        54.8115        0.00000
      14        65.7200        0.00000

 58/64 kpoint (Cartesian) = 0.0989318 0.171355 0.242332 (80 pws)
       1        1.54619      0.0312500
       2        1.96069      0.0312500
       3        4.09245      0.0312500
       4        4.59713      0.0312500
       5        22.6100        0.00000
       6        23.7097        0.00000
       7        26.0942        0.00000
       8        26.9949        0.00000
       9        35.1916        0.00000
      10        35.7203        0.00000
      11        48.9551        0.00000
      12        49.3533        0.00000
      13        63.2493        0.00000
      14        64.3820        0.00000

 59/64 kpoint (Cartesian) = 0.197864 0.114237 0.201944 (79 pws)
       1       -2.91114      0.0312500
       2        2.12745      0.0312500
       3        6.50044      0.0312500
       4        8.28684      0.0312500
       5        19.6560        0.00000
       6        24.3758        0.00000
       7        26.2378        0.00000
       8        27.3353        0.00000
       9        34.4422        0.00000
      10        38.4162        0.00000
      11        45.2084        0.00000
      12        52.6818        0.00000
      13        54.7087        0.00000
      14        66.7443        0.00000

 60/64 kpoint (Cartesian) = 0.296795 0.0571183 0.161555 (81 pws)
       1       -5.04354      0.0312500
       2        4.42068      0.0312500
       3        5.50707      0.0312500
       4        10.4618      0.0312500
       5        21.0146        0.00000
       6        22.7470        0.00000
       7        26.7081        0.00000
       8        27.5461        0.00000
       9        33.1979        0.00000
      10        37.8532        0.00000
      11        41.3007        0.00000
      12        58.3448        0.00000
      13        59.9800        0.00000
      14        61.7699        0.00000

 61/64 kpoint (Cartesian) = 0.00000 0.342710 0.242332 (79 pws)
       1       -7.33048      0.0312500
       2        7.80538      0.0312500
       3        8.62256      0.0312500
       4        9.83620      0.0312500
       5        17.6740        0.00000
       6        23.4220        0.00000
       7        24.4221        0.00000
       8        25.9121        0.00000
       9        35.4675        0.00000
      10        38.3914        0.00000
      11        46.6372        0.00000
      12        56.8790        0.00000
      13        57.1941        0.00000
      14        58.2469        0.00000

 62/64 kpoint (Cartesian) = 0.0989318 0.285591 0.201944 (81 pws)
       1       -3.00065      0.0312500
       2        2.75918      0.0312500
       3        5.85208      0.0312500
       4        7.94389      0.0312500
       5        19.7373        0.00000
       6        23.9059        0.00000
       7        25.1941        0.00000
       8        27.1927        0.00000
       9        35.2776        0.00000
      10        39.4072        0.00000
      11        46.3618        0.00000
      12        54.9935        0.00000
      13        55.8935        0.00000
      14        63.6910        0.00000

 63/64 kpoint (Cartesian) = 0.197864 0.228473 0.161555 (80 pws)
       1       -5.07770      0.0312500
       2        4.67661      0.0312500
       3        5.66879      0.0312500
       4        9.62945      0.0312500
       5        21.2809        0.00000
       6        23.0401        0.00000
       7        25.3211        0.00000
       8        27.2315        0.00000
       9        34.8530        0.00000
      10        37.4930        0.00000
      11        42.2517        0.00000
      12        58.4286        0.00000
      13        59.4812        0.00000
      14        61.4833        0.00000

 64/64 kpoint (Cartesian) = 0.296795 0.171355 0.121166 (80 pws)
       1       -7.68970      0.0312500
       2        6.25338      0.0312500
       3        10.6158      0.0312500
       4        11.8416      0.0312500
       5        19.7472        0.00000
       6        21.2939        0.00000
       7        22.0375        0.00000
       8        28.7193        0.00000
       9        36.8092        0.00000
      10        39.0884        0.00000
      11        39.8083        0.00000
      12        56.2060        0.00000
      13        58.2357        0.00000
      14        58.6446        0.00000

 EFERMI = 15.28549449982581 eV
 OUT.ABACUS/ final etot is -309.5327702348688 eV
 Descriptors have been printed to .//descriptor.dat
 Calculate the energy density matrix with k 
                                      irr = 24438
                                 LNNR.nnr = 24438
                                      irr = 24438
                                 LNNR.nnr = 24438
 Calculate the energy density matrix with k 
                                      irr = 24438
                                 LNNR.nnr = 24438
                                      irr = 24438
                                 LNNR.nnr = 24438
 LNNR.nnrg in cal_force_k = 151086
 F_delta has been printed to .//F_delta.dat
 correction force for each atom along direction 1 is 9.00874e-05
 correction force for each atom along direction 2 is 0.000189565
 correction force for each atom along direction 3 is -0.000190768

 ><><><><><><><><><><><><><><><><><><><><><><

    TOTAL-FORCE (eV/Angstrom)

 ><><><><><><><><><><><><><><><><><><><><><><

     atom              x              y              z
       C1     +4.1383489   -0.013374390    +0.89726686
       C2     -4.1383489   +0.013374390    -0.89726686


 --------------------------------------------
 !FINAL_ETOT_IS -309.5327702348688 eV
 --------------------------------------------






  |CLASS_NAME---------|NAME---------------|TIME(Sec)-----|CALLS----|AVG------|PER%-------
                                      total         196.66        11       18.   1.0e+02%
               Run_lcao           lcao_line         196.65         1   2.0e+02    1.e+02%
            ORB_control      read_orb_first        0.49025         1      0.49      0.25%
          LCAO_Orbitals       Read_Orbitals        0.49025         1      0.49      0.25%
            NOrbital_Lm       extra_uniform        0.39341        50    0.0079      0.20%
          Mathzone_Add1       Uni_Deriv_Phi        0.37659        50    0.0075      0.19%
            ORB_control      set_orb_tables         2.3311         1       2.3       1.2%
         ORB_gen_tables          gen_tables         2.3311         1       2.3       1.2%
          ORB_table_phi          init_Table        0.34777         1      0.35      0.18%
          ORB_table_phi      cal_ST_Phi12_R        0.34415        70    0.0049      0.18%
        ORB_table_alpha    init_Table_Alpha         1.7046         1       1.7      0.87%
        ORB_table_alpha        S_PhiAlpha_R         1.6913       330    0.0051      0.86%
              LOOP_ions            opt_ions         193.74         1   1.9e+02       99.%
              LOOP_elec     solve_elec_stru         106.18         1   1.1e+02       54.%
              LOOP_elec       before_solver        0.27921         1      0.28      0.14%
            LCAO_Hamilt   set_lcao_matrices        0.11323         1      0.11     0.058%
        LCAO_gen_fixedHbuild_Nonlocal_mu_new        0.22514         2      0.11      0.11%
            LCAO_Deepks      build_psialpha        0.16486         1      0.16     0.084%
         ORB_gen_tables  snap_psialpha_half        0.14740      3432   4.3e-05     0.075%
              LOOP_elec              solver         105.85         1   1.1e+02       54.%
               ELEC_scf                 scf         105.85         1   1.1e+02       54.%
          ELEC_cbands_k           cal_bands         102.47         8       13.       52.%
            LCAO_Deepks  cal_projected_DM_k         43.888        10       4.4       22.%
        LCAO_DESCRIPTOR       add_v_delta_k         27.970         8       3.5       14.%
                 Gint_k              vlocal         5.4147         8      0.68       2.8%
             Efficience              each_k         2.3818       512    0.0047       1.2%
             Efficience                 H_k         1.6989       512    0.0033      0.86%
            LCAO_Hamilt        calculate_Hk         1.6982       512    0.0033      0.86%
                 Gint_k        folding_vl_k        0.74103       512    0.0014      0.38%
                 Gint_k              Distri        0.60302       512    0.0012      0.31%
               LCAO_nnr      folding_fixedH        0.95598       512    0.0019      0.49%
             Efficience             diago_k        0.68253       512    0.0013      0.35%
      Diago_LCAO_Matrix          elpa_solve        0.62751       512    0.0012      0.32%
      Local_Orbital_Cha           sum_bands         3.2635         8      0.41       1.7%
            LCAO_Charge            cal_dk_k        0.52359         8     0.065      0.27%
                 Gint_k           cal_rho_k         2.4536         8      0.31       1.2%
              LOOP_ions        force_stress         78.151         1       78.       40.%
      Force_Stress_LCAO      getForceStress         78.151         1       78.       40.%
           Force_LCAO_k            ftable_k         25.262         1       25.       13.%
           Force_LCAO_k          allocate_k        0.22334         1      0.22      0.11%
           Force_LCAO_k           set_EDM_k        0.11998         2     0.060     0.061%
           Force_LCAO_k      cal_fvl_dphi_k         3.6446         1       3.6       1.9%
                 Gint_k     svl_k_RealSpace         3.6380         1       3.6       1.8%
                 Gint_k   evaluate_vl_force         3.2571       288     0.011       1.7%
                 Gint_k       folding_force        0.28335         1      0.28      0.14%
           Force_LCAO_kcal_fvnl_dbeta_k_new        0.44285         1      0.44      0.23%
            LCAO_Deepkscal_f_delta_hf_k_new         10.886         1       11.       5.5%
            LCAO_Deepks          cal_gdmx_k         52.868         1       53.       27.%
 ----------------------------------------------------------------------------------------

 CLASS_NAME---------|NAME---------------|MEMORY(MB)--------
                                         5362.
        ORB_table_phi               Jl(x)          107.2
      ORB_table_alpha           Table_DSR          4.494
        init_meshball        meshball_pos          1.363
        ORB_table_phi         Table_SR&TR          1.225
  LocalOrbital_Charge      Density_Matrix          1.153
        allocate_pvpR        pvpR_reduced          1.153
 ----------------------------------------------------------

 Start  Time  : Wed Apr  6 22:27:05 2022
 Finish Time  : Wed Apr  6 22:30:21 2022
 Total  Time  : 0 h 3 mins 16 secs 
