 *********************************************************
 *                                                       *
 *                  WELCOME TO ABACUS                    *
 *                                                       *
 *            'Atomic-orbital Based Ab-initio            *
 *                  Computation at UStc'                 *
 *                                                       *
 *          Website: http://abacus.ustc.edu.cn/          *
 *                                                       *
 *********************************************************
 Wed Mar 23 15:10:14 2022
 MAKE THE DIR         : OUT.ABACUS/
 dft_functional readin is: pbe
 dft_functional in pseudopot file is: PBE
In Pseudopot_upf::read_pseudo_header : input xc functional does not match that in pseudopot file
Please make sure this is what you need
 dft_functional readin is: pbe
 dft_functional in pseudopot file is: PBE
In Pseudopot_upf::read_pseudo_header : input xc functional does not match that in pseudopot file
Please make sure this is what you need
 dft_functional readin is: pbe
 dft_functional in pseudopot file is: PBE
In Pseudopot_upf::read_pseudo_header : input xc functional does not match that in pseudopot file
Please make sure this is what you need
 DONE(0.0538965  SEC) : SETUP UNITCELL
 DONE(0.0561143  SEC) : INIT K-POINTS
 ---------------------------------------------------------
 Self-consistent calculations for electrons
 ---------------------------------------------------------
 SPIN    KPOINTS         PROCESSORS  NBASE       
 1       64              16          116         
 ---------------------------------------------------------
 Use Systematically Improvable Atomic bases
 ---------------------------------------------------------
 ELEMENT ORBITALS        NBASE       NATOM       XC          
 Cu      4s2p2d1f-9au    27          2           PBE
 H       2s1p-8au        5           2           PBE
 O       2s2p1d-7au      13          4           PBE
 ---------------------------------------------------------
 Initial plane wave basis and FFT box
 ---------------------------------------------------------
 SET NONLOCAL PSEUDOPOTENTIAL PROJECTORS
 SET NONLOCAL PSEUDOPOTENTIAL PROJECTORS
 SET NONLOCAL PSEUDOPOTENTIAL PROJECTORS
 DONE(16.0839    SEC) : INIT PLANEWAVE
 UNIFORM GRID DIM     : 30 * 48 * 60
 UNIFORM GRID DIM(BIG): 15 * 24 * 30
 DONE(16.0853    SEC) : INIT CHARGE
 DONE(16.0855    SEC) : INIT POTENTIAL
 START POTENTIAL      : atomic
 -------------------------------------------
 SELF-CONSISTENT : 
 -------------------------------------------
 ITER   ETOT(eV)       EDIFF(eV)      DRHO2      TIME(s)    
 GE1    -1.167963e+04  0.000000e+00   1.250e-01  1.044e+01  
 GE2    -1.170503e+04  -2.539708e+01  6.648e-02  2.248e+01  
 GE3    -1.169800e+04  7.027873e+00   3.710e-02  2.240e+01  
 GE4    -1.170270e+04  -4.697649e+00  1.858e-02  2.216e+01  
 GE5    -1.170231e+04  3.926349e-01   6.205e-03  2.231e+01  
 GE6    -1.170227e+04  3.812213e-02   4.012e-03  2.221e+01  
 GE7    -1.170217e+04  9.609754e-02   2.641e-03  2.229e+01  
 GE8    -1.170240e+04  -2.324289e-01  1.403e-03  2.237e+01  
 GE9    -1.170215e+04  2.549416e-01   1.061e-03  2.273e+01  
 GE10   -1.170240e+04  -2.476339e-01  1.471e-03  2.231e+01  
 GE11   -1.170214e+04  2.584447e-01   1.031e-03  2.216e+01  
 GE12   -1.170239e+04  -2.531180e-01  1.422e-03  2.219e+01  
 GE13   -1.170213e+04  2.646760e-01   1.192e-03  2.258e+01  
 GE14   -1.170240e+04  -2.720707e-01  1.433e-03  2.219e+01  
 GE15   -1.170212e+04  2.820375e-01   1.308e-03  2.229e+01  
 GE16   -1.170240e+04  -2.849733e-01  1.474e-03  2.222e+01  
 GE17   -1.170211e+04  2.927703e-01   1.393e-03  2.230e+01  
 GE18   -1.170240e+04  -2.962541e-01  1.470e-03  2.224e+01  
 GE19   -1.170211e+04  2.967369e-01   1.380e-03  2.220e+01  
 GE20   -1.170240e+04  -2.969232e-01  1.527e-03  2.216e+01  
 GE21   -1.170211e+04  2.980375e-01   1.339e-03  2.225e+01  
 GE22   -1.170241e+04  -2.994673e-01  1.571e-03  2.211e+01  
 GE23   -1.170211e+04  3.011629e-01   1.337e-03  2.216e+01  
 GE24   -1.170240e+04  -2.979722e-01  1.514e-03  2.220e+01  
 GE25   -1.170210e+04  2.988179e-01   1.421e-03  2.235e+01  
 GE26   -1.170241e+04  -3.055523e-01  1.616e-03  2.219e+01  
 GE27   -1.170211e+04  3.018040e-01   1.190e-03  2.224e+01  
 GE28   -1.170241e+04  -3.013307e-01  1.845e-03  2.223e+01  
 GE29   -1.170210e+04  3.081502e-01   1.121e-03  2.242e+01  
 GE30   -1.170241e+04  -3.134747e-01  1.987e-03  2.224e+01  
 GE31   -1.170211e+04  3.075970e-01   7.267e-04  2.222e+01  
 GE32   -1.170242e+04  -3.140379e-01  2.618e-03  2.221e+01  
 GE33   -1.170210e+04  3.236091e-01   3.079e-04  2.219e+01  
 GE34   -1.170241e+04  -3.141949e-01  2.678e-03  2.238e+01  
 GE35   -1.170209e+04  3.194505e-01   3.727e-04  2.240e+01  
 GE36   -1.170241e+04  -3.194834e-01  2.679e-03  2.239e+01  
 GE37   -1.170209e+04  3.213842e-01   4.151e-04  2.257e+01  
 GE38   -1.170241e+04  -3.235261e-01  2.651e-03  2.219e+01  
 GE39   -1.170209e+04  3.213439e-01   3.856e-04  2.224e+01  
 GE40   -1.170241e+04  -3.199383e-01  2.669e-03  2.229e+01  
 GE41   -1.170209e+04  3.212650e-01   4.011e-04  2.223e+01  
 GE42   -1.170241e+04  -3.222367e-01  2.649e-03  2.219e+01  
 GE43   -1.170209e+04  3.211535e-01   3.949e-04  2.201e+01  
 GE44   -1.170241e+04  -3.198438e-01  2.652e-03  2.209e+01  
 GE45   -1.170209e+04  3.203145e-01   4.017e-04  2.211e+01  
 GE46   -1.170241e+04  -3.211808e-01  2.633e-03  2.214e+01  
 GE47   -1.170209e+04  3.202414e-01   3.985e-04  2.227e+01  
 GE48   -1.170241e+04  -3.194008e-01  2.649e-03  2.226e+01  
 GE49   -1.170209e+04  3.203702e-01   4.064e-04  2.220e+01  
 GE50   -1.170241e+04  -3.210889e-01  2.625e-03  2.220e+01  
 GE51   -1.170209e+04  3.197567e-01   3.973e-04  2.222e+01  
 GE52   -1.170241e+04  -3.189681e-01  2.648e-03  2.233e+01  
 GE53   -1.170209e+04  3.203086e-01   4.083e-04  2.223e+01  
 GE54   -1.170241e+04  -3.210457e-01  2.621e-03  2.212e+01  
 GE55   -1.170209e+04  3.196821e-01   4.005e-04  2.209e+01  
 GE56   -1.170241e+04  -3.189339e-01  2.645e-03  2.224e+01  
 GE57   -1.170209e+04  3.201602e-01   4.082e-04  2.225e+01  
 GE58   -1.170241e+04  -3.209154e-01  2.622e-03  2.229e+01  
 GE59   -1.170209e+04  3.196774e-01   4.000e-04  2.228e+01  
 GE60   -1.170241e+04  -3.189073e-01  2.645e-03  2.220e+01  
 GE61   -1.170209e+04  3.201604e-01   4.086e-04  2.225e+01  
 GE62   -1.170241e+04  -3.209224e-01  2.621e-03  2.231e+01  
 GE63   -1.170209e+04  3.196546e-01   4.003e-04  2.223e+01  
 GE64   -1.170241e+04  -3.189084e-01  2.645e-03  2.215e+01  
 GE65   -1.170209e+04  3.201946e-01   4.088e-04  2.210e+01  
 GE66   -1.170241e+04  -3.209652e-01  2.621e-03  2.215e+01  
 GE67   -1.170209e+04  3.196724e-01   3.995e-04  2.225e+01  
 GE68   -1.170241e+04  -3.189049e-01  2.646e-03  2.215e+01  
 GE69   -1.170209e+04  3.202151e-01   4.084e-04  2.222e+01  
 GE70   -1.170241e+04  -3.209814e-01  2.622e-03  2.214e+01  
 GE71   -1.170209e+04  3.196913e-01   3.996e-04  2.235e+01  
 GE72   -1.170241e+04  -3.189205e-01  2.646e-03  2.240e+01  
 GE73   -1.170209e+04  3.202036e-01   4.085e-04  2.225e+01  
 GE74   -1.170241e+04  -3.209695e-01  2.622e-03  2.210e+01  
 GE75   -1.170209e+04  3.196884e-01   3.998e-04  2.228e+01  
 GE76   -1.170241e+04  -3.189347e-01  2.646e-03  2.230e+01  
 GE77   -1.170209e+04  3.202055e-01   4.081e-04  2.244e+01  
 GE78   -1.170241e+04  -3.209590e-01  2.622e-03  2.225e+01  
 GE79   -1.170209e+04  3.196969e-01   3.997e-04  2.220e+01  
 GE80   -1.170241e+04  -3.189453e-01  2.646e-03  2.223e+01  
 GE81   -1.170209e+04  3.202215e-01   4.082e-04  2.227e+01  
 GE82   -1.170241e+04  -3.209714e-01  2.622e-03  2.281e+01  
 GE83   -1.170209e+04  3.197261e-01   4.005e-04  2.279e+01  
 GE84   -1.170241e+04  -3.189960e-01  2.646e-03  2.206e+01  
 GE85   -1.170209e+04  3.202370e-01   4.084e-04  2.216e+01  
 GE86   -1.170241e+04  -3.209892e-01  2.622e-03  2.213e+01  
 GE87   -1.170209e+04  3.197143e-01   3.994e-04  2.226e+01  
 GE88   -1.170241e+04  -3.189317e-01  2.646e-03  2.223e+01  
 GE89   -1.170209e+04  3.202205e-01   4.084e-04  2.219e+01  
 GE90   -1.170241e+04  -3.210005e-01  2.622e-03  2.216e+01  
 GE91   -1.170209e+04  3.197276e-01   3.997e-04  2.213e+01  
 GE92   -1.170241e+04  -3.189637e-01  2.646e-03  2.318e+01  
 GE93   -1.170209e+04  3.201824e-01   4.072e-04  2.211e+01  
 GE94   -1.170241e+04  -3.209260e-01  2.623e-03  2.225e+01  
 GE95   -1.170209e+04  3.197323e-01   3.996e-04  2.216e+01  
 GE96   -1.170241e+04  -3.189804e-01  2.646e-03  2.219e+01  
 GE97   -1.170209e+04  3.202290e-01   4.084e-04  2.234e+01  
 GE98   -1.170241e+04  -3.209981e-01  2.622e-03  2.224e+01  
 GE99   -1.170209e+04  3.197231e-01   3.998e-04  2.254e+01  
 GE100  -1.170241e+04  -3.189655e-01  2.646e-03  2.223e+01  
 !! CONVERGENCE HAS NOT BEEN ACHIEVED !!
E_delta_band = 2.12985689e-01 Ry = 2.89781896e+00 eV
E_delta_NN= -2.89998824e-02 Ry = -3.94563642e-01 eV

  |CLASS_NAME---------|NAME---------------|TIME(Sec)-----|CALLS----|AVG------|PER%-------
                       total               2366.8         11        2.2e+02   1e+02     %
   Run_lcao            lcao_line           2366.8         1         2.4e+03   1e+02     %
   ORB_control         read_orb_first      0.7998         1         0.8       0.034     %
   LCAO_Orbitals       Read_Orbitals       0.7998         1         0.8       0.034     %
   NOrbital_Lm         extra_uniform       0.62873        62        0.01      0.027     %
   Mathzone_Add1       Uni_Deriv_Phi       0.58954        62        0.0095    0.025     %
   ORB_control         set_orb_tables      15.164         1         15        0.64      %
   ORB_gen_tables      gen_tables          15.164         1         15        0.64      %
   ORB_table_phi       init_Table          4.1129         1         4.1       0.17      %
   ORB_table_phi       cal_ST_Phi12_R      4.0573         548       0.0074    0.17      %
   ORB_table_beta      init_Table_Beta     1.6456         1         1.6       0.07      %
   ORB_table_beta      VNL_PhiBeta_R       1.6301         266       0.0061    0.069     %
   ORB_table_alpha     init_Table_Alpha    9.1334         1         9.1       0.39      %
   ORB_table_alpha     S_PhiAlpha_R        9.0567         1095      0.0083    0.38      %
   Potential           init_pot            0.25           2         0.13      0.011     %
   FFT                 FFT3D               0.42438        1337      0.00032   0.018     %
   Potential           v_of_rho            0.53098        102       0.0052    0.022     %
   H_XC_pw             v_xc                0.49748        103       0.0048    0.021     %
   LOOP_ions           opt_ions            2350.4         1         2.4e+03   99        %
   LOOP_elec           solve_elec_stru     2216.5         1         2.2e+03   94        %
   LOOP_elec           set_matrix_grid     0.25569        1         0.26      0.011     %
   Grid_Technique      init                0.23563        1         0.24      0.01      %
   Grid_Driver         Find_atom           2.8848         105872    2.7e-05   0.12      %
   LOOP_elec           before_solver       0.7339         1         0.73      0.031     %
   LCAO_Hamilt         set_lcao_matrices   0.26548        1         0.27      0.011     %
   LCAO_gen_fixedH     build_Nonlocal_mu_new0.58382        2         0.29      0.025     %
   LCAO_Deepks         build_psialpha      0.45927        1         0.46      0.019     %
   ORB_gen_tables      snap_psialpha_half  0.42511        4487      9.5e-05   0.018     %
   LOOP_elec           solver              2215.5         1         2.2e+03   94        %
   ELEC_scf            scf                 2215.5         1         2.2e+03   94        %
   H_Ewald_pw          compute_ewald       0.41658        1         0.42      0.018     %
   ELEC_cbands_k       cal_bands           2066.9         100       21        87        %
   LCAO_Deepks         cal_projected_DM_k  1029.5         102       10        43        %
   LCAO_DESCRIPTOR     add_v_delta_k       574.54         100       5.7       24        %
   Gint_k              vlocal              75.805         100       0.76      3.2       %
   Efficience          each_k              207.63         6400      0.032     8.8       %
   Efficience          H_k                 152.15         6400      0.024     6.4       %
   LCAO_Hamilt         calculate_Hk        152.13         6400      0.024     6.4       %
   Gint_k              folding_vl_k        38.015         6400      0.0059    1.6       %
   Gint_k              Distri              28.048         6400      0.0044    1.2       %
   LCAO_nnr            folding_fixedH      114.02         6400      0.018     4.8       %
   Efficience          diago_k             55.466         6400      0.0087    2.3       %
   Diago_LCAO_Matrix   elpa_solve          52.186         6400      0.0082    2.2       %
   Diago_LCAO_Matrix   gath_eig_complex    1.7296         6400      0.00027   0.073     %
   Local_Orbital_Cha   sum_bands           146.95         100       1.5       6.2       %
   LCAO_Charge         cal_dk_k            80.74          100       0.81      3.4       %
   Record_adj          for_grid            0.10019        100       0.001     0.0042    %
   Gint_k              cal_rho_k           56.074         100       0.56      2.4       %
   Charge              mix_rho             0.12642        100       0.0013    0.0053    %
   LOOP_ions           force_stress        121.86         1         1.2e+02   5.1       %
   Force_Stress_LCAO   getForceStress      121.86         1         1.2e+02   5.1       %
   Force_LCAO_k        ftable_k            41.444         1         41        1.8       %
   Force_LCAO_k        allocate_k          0.79211        1         0.79      0.033     %
   Force_LCAO_k        cal_foverlap_k      1.6993         1         1.7       0.072     %
   Force_LCAO_k        set_EDM_k           3.2812         2         1.6       0.14      %
   Record_adj          for_2d              0.11918        4         0.03      0.005     %
   Force_LCAO_k        cal_fvl_dphi_k      9.3723         1         9.4       0.4       %
   Gint_k              svl_k_RealSpace     9.3123         1         9.3       0.39      %
   Gint_k              evaluate_vl_force   7.692          720       0.011     0.32      %
   Gint_k              folding_force       1.2119         1         1.2       0.051     %
   Force_LCAO_k        cal_fvnl_dbeta_k_new1.8529         1         1.9       0.078     %
   LCAO_Deepks         cal_f_delta_hf_k_new13.425         1         13        0.57      %
   LCAO_Deepks         cal_gdmx_k          80.122         1         80        3.4       %
 ----------------------------------------------------------------------------------------

 START  Time  : Wed Mar 23 15:10:14 2022
 FINISH Time  : Wed Mar 23 15:49:41 2022
 TOTAL  Time  : 2.4e+03
 SEE INFORMATION IN : OUT.ABACUS/
