 *********************************************************
 *                                                       *
 *                  WELCOME TO ABACUS                    *
 *                                                       *
 *            'Atomic-orbital Based Ab-initio            *
 *                  Computation at UStc'                 *
 *                                                       *
 *          Website: http://abacus.ustc.edu.cn/          *
 *                                                       *
 *********************************************************
 Wed Apr  6 22:27:46 2022
 MAKE THE DIR         : OUT.ABACUS/
 dft_functional readin is: pbe
 dft_functional in pseudopot file is: PBE
In Pseudopot_upf::read_pseudo_header : input xc functional does not match that in pseudopot file
Please make sure this is what you need
 dft_functional readin is: pbe
 dft_functional in pseudopot file is: PBE
In Pseudopot_upf::read_pseudo_header : input xc functional does not match that in pseudopot file
Please make sure this is what you need
 dft_functional readin is: pbe
 dft_functional in pseudopot file is: PBE
In Pseudopot_upf::read_pseudo_header : input xc functional does not match that in pseudopot file
Please make sure this is what you need
 DONE(0.04888    SEC) : SETUP UNITCELL
 DONE(0.0505596  SEC) : INIT K-POINTS
 ---------------------------------------------------------
 Self-consistent calculations for electrons
 ---------------------------------------------------------
 SPIN    KPOINTS         PROCESSORS  NBASE       
 1       64              16          116         
 ---------------------------------------------------------
 Use Systematically Improvable Atomic bases
 ---------------------------------------------------------
 ELEMENT ORBITALS        NBASE       NATOM       XC          
 Cu      4s2p2d1f-9au    27          2           PBE
 H       2s1p-8au        5           2           PBE
 O       2s2p1d-7au      13          4           PBE
 ---------------------------------------------------------
 Initial plane wave basis and FFT box
 ---------------------------------------------------------
 SET NONLOCAL PSEUDOPOTENTIAL PROJECTORS
 SET NONLOCAL PSEUDOPOTENTIAL PROJECTORS
 SET NONLOCAL PSEUDOPOTENTIAL PROJECTORS
 DONE(17.103     SEC) : INIT PLANEWAVE
 UNIFORM GRID DIM     : 30 * 48 * 60
 UNIFORM GRID DIM(BIG): 15 * 24 * 30
 DONE(17.1038    SEC) : INIT CHARGE
 DONE(17.104     SEC) : INIT POTENTIAL
 START POTENTIAL      : atomic
 -------------------------------------------
 SELF-CONSISTENT : 
 -------------------------------------------
 ITER   ETOT(eV)       EDIFF(eV)      DRHO2      TIME(s)    
 HOMO index is 0
 HOMO energy 0.454136
 LUMO index is 42
 LUMO energy 0.512224
 GE1    -1.169248e+04  0.000000e+00   1.072e-01  1.071e+01  
 HOMO index is 34
 HOMO energy 4.666e-01
 LUMO index is 41
 LUMO energy 4.669e-01
 GE2    -1.169795e+04  -5.465147e+00  5.705e-02  2.269e+01  
 HOMO index is 34
 HOMO energy 4.884e-01
 LUMO index is 41
 LUMO energy 5.119e-01
 GE3    -1.170016e+04  -2.219133e+00  3.432e-02  2.287e+01  
 HOMO index is 34
 HOMO energy 5.001e-01
 LUMO index is 42
 LUMO energy 4.981e-01
 GE4    -1.170043e+04  -2.654982e-01  2.008e-02  2.262e+01  
 HOMO index is 34
 HOMO energy 5.009e-01
 LUMO index is 43
 LUMO energy 4.938e-01
 GE5    -1.170072e+04  -2.855988e-01  1.317e-02  2.258e+01  
 HOMO index is 34
 HOMO energy 4.793e-01
 LUMO index is 41
 LUMO energy 5.018e-01
 GE6    -1.170088e+04  -1.633755e-01  7.340e-03  2.258e+01  
 HOMO index is 34
 HOMO energy 4.878e-01
 LUMO index is 42
 LUMO energy 5.083e-01
 GE7    -1.170086e+04  2.023411e-02   3.295e-03  2.244e+01  
 HOMO index is 34
 HOMO energy 4.841e-01
 LUMO index is 41
 LUMO energy 5.096e-01
 GE8    -1.170090e+04  -4.416276e-02  1.611e-03  2.260e+01  
 HOMO index is 34
 HOMO energy 4.836e-01
 LUMO index is 41
 LUMO energy 5.126e-01
 GE9    -1.170089e+04  8.553172e-03   7.301e-04  2.267e+01  
 HOMO index is 34
 HOMO energy 4.832e-01
 LUMO index is 43
 LUMO energy 5.117e-01
 GE10   -1.170090e+04  -2.627175e-03  4.940e-04  2.254e+01  
 HOMO index is 34
 HOMO energy 4.833e-01
 LUMO index is 43
 LUMO energy 5.123e-01
 GE11   -1.170089e+04  2.174240e-03   1.472e-04  2.247e+01  
 HOMO index is 34
 HOMO energy 4.834e-01
 LUMO index is 43
 LUMO energy 5.122e-01
 GE12   -1.170090e+04  -7.593601e-04  5.800e-05  2.271e+01  
 HOMO index is 34
 HOMO energy 4.834e-01
 LUMO index is 41
 LUMO energy 5.122e-01
 GE13   -1.170090e+04  -4.342420e-05  3.260e-05  2.252e+01  
 HOMO index is 34
 HOMO energy 4.834e-01
 LUMO index is 41
 LUMO energy 5.122e-01
 GE14   -1.170090e+04  7.911667e-06   2.215e-05  2.262e+01  
 HOMO index is 34
 HOMO energy 4.834e-01
 LUMO index is 41
 LUMO energy 5.122e-01
 GE15   -1.170090e+04  2.466641e-05   6.376e-06  2.274e+01  
 HOMO index is 34
 HOMO energy 4.834e-01
 LUMO index is 43
 LUMO energy 5.122e-01
 GE16   -1.170090e+04  -3.587929e-05  4.224e-06  2.261e+01  
 HOMO index is 34
 HOMO energy 4.834e-01
 LUMO index is 43
 LUMO energy 5.122e-01
 GE17   -1.170090e+04  3.969609e-05   1.491e-06  2.250e+01  
 HOMO index is 34
 HOMO energy 4.834e-01
 LUMO index is 43
 LUMO energy 5.122e-01
 GE18   -1.170090e+04  -8.055444e-06  1.285e-06  2.249e+01  
 HOMO index is 34
 HOMO energy 4.834e-01
 LUMO index is 41
 LUMO energy 5.122e-01
 GE19   -1.170090e+04  1.680223e-06   4.506e-07  2.257e+01  
E_delta_band = -2.84862750e-01 Ry = -3.87575655e+00 eV
E_delta_NN= -2.06990730e-02 Ry = -2.81625336e-01 eV

  |CLASS_NAME---------|NAME---------------|TIME(Sec)-----|CALLS----|AVG------|PER%-------
                       total               572.98         11        52        1e+02     %
   Run_lcao            lcao_line           572.97         1         5.7e+02   1e+02     %
   ORB_control         read_orb_first      0.81989        1         0.82      0.14      %
   LCAO_Orbitals       Read_Orbitals       0.81988        1         0.82      0.14      %
   NOrbital_Lm         extra_uniform       0.62397        62        0.01      0.11      %
   Mathzone_Add1       Uni_Deriv_Phi       0.58045        62        0.0094    0.1       %
   ORB_control         set_orb_tables      16.138         1         16        2.8       %
   ORB_gen_tables      gen_tables          16.138         1         16        2.8       %
   ORB_table_phi       init_Table          4.4327         1         4.4       0.77      %
   ORB_table_phi       cal_ST_Phi12_R      4.3598         548       0.008     0.76      %
   ORB_table_beta      init_Table_Beta     1.7533         1         1.8       0.31      %
   ORB_table_beta      VNL_PhiBeta_R       1.7326         266       0.0065    0.3       %
   ORB_table_alpha     init_Table_Alpha    9.4424         1         9.4       1.6       %
   ORB_table_alpha     S_PhiAlpha_R        9.343          1095      0.0085    1.6       %
   FFT                 FFT3D               0.12563        284       0.00044   0.022     %
   LOOP_ions           opt_ions            555.78         1         5.6e+02   97        %
   LOOP_elec           solve_elec_stru     418.88         1         4.2e+02   73        %
   LOOP_elec           set_matrix_grid     0.10321        1         0.1       0.018     %
   Grid_Driver         Find_atom           0.61211        20336     3e-05     0.11      %
   LOOP_elec           before_solver       0.77357        1         0.77      0.14      %
   LCAO_Hamilt         set_lcao_matrices   0.27166        1         0.27      0.047     %
   LCAO_gen_fixedH     build_Nonlocal_mu_new0.60398        2         0.3       0.11      %
   LCAO_Deepks         build_psialpha      0.47737        1         0.48      0.083     %
   ORB_gen_tables      snap_psialpha_half  0.43405        4487      9.7e-05   0.076     %
   LOOP_elec           solver              418.01         1         4.2e+02   73        %
   ELEC_scf            scf                 418.01         1         4.2e+02   73        %
   H_Ewald_pw          compute_ewald       0.4155         1         0.42      0.073     %
   ELEC_cbands_k       cal_bands           387.1          19        20        68        %
   LCAO_Deepks         cal_projected_DM_k  214.25         21        10        37        %
   LCAO_DESCRIPTOR     add_v_delta_k       109.88         19        5.8       19        %
   Gint_k              vlocal              14.984         19        0.79      2.6       %
   Efficience          each_k              41.433         1216      0.034     7.2       %
   Efficience          H_k                 31.299         1216      0.026     5.5       %
   LCAO_Hamilt         calculate_Hk        31.294         1216      0.026     5.5       %
   Gint_k              folding_vl_k        8.303          1216      0.0068    1.4       %
   Gint_k              Distri              6.2416         1216      0.0051    1.1       %
   LCAO_nnr            folding_fixedH      22.97          1216      0.019     4         %
   Efficience          diago_k             10.132         1216      0.0083    1.8       %
   Diago_LCAO_Matrix   elpa_solve          9.491          1216      0.0078    1.7       %
   Diago_LCAO_Matrix   gath_eig_complex    0.32309        1216      0.00027   0.056     %
   Local_Orbital_Cha   sum_bands           30.246         19        1.6       5.3       %
   LCAO_Charge         cal_dk_k            16.67          19        0.88      2.9       %
   Gint_k              cal_rho_k           11.623         19        0.61      2         %
   LOOP_ions           force_stress        124.59         1         1.2e+02   22        %
   Force_Stress_LCAO   getForceStress      124.59         1         1.2e+02   22        %
   Force_LCAO_k        ftable_k            42.368         1         42        7.4       %
   Force_LCAO_k        allocate_k          0.8131         1         0.81      0.14      %
   Force_LCAO_k        cal_foverlap_k      1.7128         1         1.7       0.3       %
   Force_LCAO_k        set_EDM_k           3.3014         2         1.7       0.58      %
   Record_adj          for_2d              0.12072        4         0.03      0.021     %
   Force_LCAO_k        cal_fvl_dphi_k      9.4903         1         9.5       1.7       %
   Gint_k              svl_k_RealSpace     9.417          1         9.4       1.6       %
   Gint_k              evaluate_vl_force   7.7153         720       0.011     1.3       %
   Gint_k              folding_force       1.2664         1         1.3       0.22      %
   Force_LCAO_k        cal_fvnl_dbeta_k_new1.8676         1         1.9       0.33      %
   LCAO_Deepks         cal_f_delta_hf_k_new13.613         1         14        2.4       %
   LCAO_Deepks         cal_gdmx_k          81.932         1         82        14        %
 ----------------------------------------------------------------------------------------

 START  Time  : Wed Apr  6 22:27:46 2022
 FINISH Time  : Wed Apr  6 22:37:19 2022
 TOTAL  Time  : 5.7e+02
 SEE INFORMATION IN : OUT.ABACUS/
