                                                                                     
                             WELCOME TO ABACUS                                       
                                                                                     
               'Atomic-orbital Based Ab-initio Computation at UStc'                  
                                                                                     
                     Website: http://abacus.ustc.edu.cn/                             
                                                                                     
    Version: Parallel, in development
    Processor Number is 16
    Start Time is Wed Apr  6 22:26:27 2022
                                                                                     
 ------------------------------------------------------------------------------------

 READING GENERAL INFORMATION
                           global_out_dir = OUT.ABACUS/
                           global_in_card = INPUT
                               pseudo_dir = 
                              orbital_dir = 
                              pseudo_type = auto
                                    DRANK = 1
                                    DSIZE = 16
                                   DCOLOR = 1
                                    GRANK = 1
                                    GSIZE = 1




 >>>>>>>>>>>>>>>>>>>>>>>>>>>>>>>>>>>>>>>>>>>>>>>>>>>>>>>>>>>>>>>>>>>>>>
 |                                                                    |
 | Reading atom information in unitcell:                              |
 | From the input file and the structure file we know the number of   |
 | different elments in this unitcell, then we list the detail        |
 | information for each element, especially the zeta and polar atomic |
 | orbital number for each element. The total atom number is counted. |
 | We calculate the nearest atom distance for each atom and show the  |
 | Cartesian and Direct coordinates for each atom. We list the file   |
 | address for atomic orbitals. The volume and the lattice vectors    |
 | in real and reciprocal space is also shown.                        |
 |                                                                    |
 <<<<<<<<<<<<<<<<<<<<<<<<<<<<<<<<<<<<<<<<<<<<<<<<<<<<<<<<<<<<<<<<<<<<<<




 READING UNITCELL INFORMATION
                                    ntype = 2
                 atom label for species 1 = Ga
                 atom label for species 2 = N
                  lattice constant (Bohr) = 1.88973
              lattice constant (Angstrom) = 1

 READING ATOM TYPE 1
                               atom label = Ga
                      L=0, number of zeta = 2
                      L=1, number of zeta = 2
                      L=2, number of zeta = 2
             number of atom for this type = 2
                      start magnetization = FALSE
                      start magnetization = FALSE

 READING ATOM TYPE 2
                               atom label = N
                      L=0, number of zeta = 2
                      L=1, number of zeta = 2
                      L=2, number of zeta = 1
             number of atom for this type = 2
                      start magnetization = FALSE
                      start magnetization = FALSE

                        TOTAL ATOM NUMBER = 4

 CARTESIAN COORDINATES ( UNIT = 1.88973 Bohr ).
         atom                   x                   y                   z                 mag                  vx                  vy                  vz
     tauc_Ga1    -0.0539240018507       1.81746282988       5.20030320516                   0                   0                   0                   0
     tauc_Ga2       1.49116587991      0.851138594954       2.64942542967                   0                   0                   0                   0
      tauc_N1      0.062750409344       1.86052530582        1.9805460311                   0                   0                   0                   0
      tauc_N2       1.50904790643      0.862369863111       4.52596378068                   0                   0                   0                   0


 READING ORBITAL FILE NAMES FOR LCAO
 orbital file: /root/Orb_SG15_DZP_E60_Standard_v1.0/Ga_gga_9au_60Ry_2s2p2d.orb
 orbital file: /root/Orb_SG15_DZP_E60_Standard_v1.0/N_gga_8au_60Ry_2s2p1d.orb

                          Volume (Bohr^3) = 316.785855793
                             Volume (A^3) = 46.9427645121

 Lattice vectors: (Cartesian coordinate: in unit of a_0)
        +3.2162899971                  +0                  +0
        -1.6081449986       +2.7853888434                  +0
                   +0                  +0        +5.239962101
 Reciprocal vectors: (Cartesian coordinate: in unit of 2 pi/a_0)
      +0.310917237221     +0.179508150613                  -0
                   +0     +0.359016301214                  +0
                   +0                  -0      +0.19084107494




 >>>>>>>>>>>>>>>>>>>>>>>>>>>>>>>>>>>>>>>>>>>>>>>>>>>>>>>>>>>>>>>>>>>>>>
 |                                                                    |
 | Reading pseudopotentials files:                                    |
 | The pseudopotential file is in UPF format. The 'NC' indicates that |
 | the type of pseudopotential is 'norm conserving'. Functional of    |
 | exchange and correlation is decided by 4 given parameters in UPF   |
 | file.  We also read in the 'core correction' if there exists.      |
 | Also we can read the valence electrons number and the maximal      |
 | angular momentum used in this pseudopotential. We also read in the |
 | trail wave function, trail atomic density and local-pseudopotential|
 | on logrithmic grid. The non-local pseudopotential projector is also|
 | read in if there is any.                                           |
 |                                                                    |
 <<<<<<<<<<<<<<<<<<<<<<<<<<<<<<<<<<<<<<<<<<<<<<<<<<<<<<<<<<<<<<<<<<<<<<




                PAO radial cut off (Bohr) = 15

 Read in pseudopotential file is /root/SG15_ONCV_v1.0_upf/Ga_ONCV_PBE-1.0.upf
                     pseudopotential type = NC
                            functional Ex = PBE
                            functional Ec = 
                          functional GCEx = 
                          functional GCEc = 
                 nonlocal core correction = 0
                        valence electrons = 13
                                     lmax = 2
                           number of zeta = 0
                     number of projectors = 6
                           L of projector = 0
                           L of projector = 0
                           L of projector = 1
                           L of projector = 1
                           L of projector = 2
                           L of projector = 2

 XC functional updated to : 
                            functional Ex = PBE
                            functional Ec = 
                          functional GCEx = 
                          functional GCEc = 
                PAO radial cut off (Bohr) = 15

 Read in pseudopotential file is /root/SG15_ONCV_v1.0_upf/N_ONCV_PBE-1.0.upf
                     pseudopotential type = NC
                            functional Ex = PBE
                            functional Ec = 
                          functional GCEx = 
                          functional GCEc = 
                 nonlocal core correction = 0
                        valence electrons = 5
                                     lmax = 1
                           number of zeta = 0
                     number of projectors = 4
                           L of projector = 0
                           L of projector = 0
                           L of projector = 1
                           L of projector = 1

 XC functional updated to : 
                            functional Ex = PBE
                            functional Ec = 
                          functional GCEx = 
                          functional GCEc = 
     initial pseudo atomic orbital number = 0
                                   NLOCAL = 62

 SETUP THE ELECTRONS NUMBER
            electron number of element Ga = 13
      total electron number of element Ga = 26
             electron number of element N = 5
       total electron number of element N = 10
                           occupied bands = 18
                                   NLOCAL = 62
                                   NBANDS = 28
                                   NBANDS = 28
 DONE : SETUP UNITCELL Time : 0.038103730951 (SEC)





 >>>>>>>>>>>>>>>>>>>>>>>>>>>>>>>>>>>>>>>>>>>>>>>>>>>>>>>>>>>>>>>>>>>>>>
 |                                                                    |
 | Setup K-points                                                     |
 | We setup the k-points according to input parameters.               |
 | The reduced k-points are set according to symmetry operations.     |
 | We treat the spin as another set of k-points.                      |
 |                                                                    |
 <<<<<<<<<<<<<<<<<<<<<<<<<<<<<<<<<<<<<<<<<<<<<<<<<<<<<<<<<<<<<<<<<<<<<<





 SETUP K-POINTS
                                    nspin = 1
                   Input type of k points = Monkhorst-Pack(Gamma)
                                   nkstot = 125

  KPOINTS            DIRECT_X            DIRECT_Y            DIRECT_Z              WEIGHT
        1                   0                   0                   0               0.008
        2                 0.2                   0                   0               0.008
        3                 0.4                   0                   0               0.008
        4                 0.6                   0                   0               0.008
        5                 0.8                   0                   0               0.008
        6                   0                 0.2                   0               0.008
        7                 0.2                 0.2                   0               0.008
        8                 0.4                 0.2                   0               0.008
        9                 0.6                 0.2                   0               0.008
       10                 0.8                 0.2                   0               0.008
       11                   0                 0.4                   0               0.008
       12                 0.2                 0.4                   0               0.008
       13                 0.4                 0.4                   0               0.008
       14                 0.6                 0.4                   0               0.008
       15                 0.8                 0.4                   0               0.008
       16                   0                 0.6                   0               0.008
       17                 0.2                 0.6                   0               0.008
       18                 0.4                 0.6                   0               0.008
       19                 0.6                 0.6                   0               0.008
       20                 0.8                 0.6                   0               0.008
       21                   0                 0.8                   0               0.008
       22                 0.2                 0.8                   0               0.008
       23                 0.4                 0.8                   0               0.008
       24                 0.6                 0.8                   0               0.008
       25                 0.8                 0.8                   0               0.008
       26                   0                   0                 0.2               0.008
       27                 0.2                   0                 0.2               0.008
       28                 0.4                   0                 0.2               0.008
       29                 0.6                   0                 0.2               0.008
       30                 0.8                   0                 0.2               0.008
       31                   0                 0.2                 0.2               0.008
       32                 0.2                 0.2                 0.2               0.008
       33                 0.4                 0.2                 0.2               0.008
       34                 0.6                 0.2                 0.2               0.008
       35                 0.8                 0.2                 0.2               0.008
       36                   0                 0.4                 0.2               0.008
       37                 0.2                 0.4                 0.2               0.008
       38                 0.4                 0.4                 0.2               0.008
       39                 0.6                 0.4                 0.2               0.008
       40                 0.8                 0.4                 0.2               0.008
       41                   0                 0.6                 0.2               0.008
       42                 0.2                 0.6                 0.2               0.008
       43                 0.4                 0.6                 0.2               0.008
       44                 0.6                 0.6                 0.2               0.008
       45                 0.8                 0.6                 0.2               0.008
       46                   0                 0.8                 0.2               0.008
       47                 0.2                 0.8                 0.2               0.008
       48                 0.4                 0.8                 0.2               0.008
       49                 0.6                 0.8                 0.2               0.008
       50                 0.8                 0.8                 0.2               0.008
       51                   0                   0                 0.4               0.008
       52                 0.2                   0                 0.4               0.008
       53                 0.4                   0                 0.4               0.008
       54                 0.6                   0                 0.4               0.008
       55                 0.8                   0                 0.4               0.008
       56                   0                 0.2                 0.4               0.008
       57                 0.2                 0.2                 0.4               0.008
       58                 0.4                 0.2                 0.4               0.008
       59                 0.6                 0.2                 0.4               0.008
       60                 0.8                 0.2                 0.4               0.008
       61                   0                 0.4                 0.4               0.008
       62                 0.2                 0.4                 0.4               0.008
       63                 0.4                 0.4                 0.4               0.008
       64                 0.6                 0.4                 0.4               0.008
       65                 0.8                 0.4                 0.4               0.008
       66                   0                 0.6                 0.4               0.008
       67                 0.2                 0.6                 0.4               0.008
       68                 0.4                 0.6                 0.4               0.008
       69                 0.6                 0.6                 0.4               0.008
       70                 0.8                 0.6                 0.4               0.008
       71                   0                 0.8                 0.4               0.008
       72                 0.2                 0.8                 0.4               0.008
       73                 0.4                 0.8                 0.4               0.008
       74                 0.6                 0.8                 0.4               0.008
       75                 0.8                 0.8                 0.4               0.008
       76                   0                   0                 0.6               0.008
       77                 0.2                   0                 0.6               0.008
       78                 0.4                   0                 0.6               0.008
       79                 0.6                   0                 0.6               0.008
       80                 0.8                   0                 0.6               0.008
       81                   0                 0.2                 0.6               0.008
       82                 0.2                 0.2                 0.6               0.008
       83                 0.4                 0.2                 0.6               0.008
       84                 0.6                 0.2                 0.6               0.008
       85                 0.8                 0.2                 0.6               0.008
       86                   0                 0.4                 0.6               0.008
       87                 0.2                 0.4                 0.6               0.008
       88                 0.4                 0.4                 0.6               0.008
       89                 0.6                 0.4                 0.6               0.008
       90                 0.8                 0.4                 0.6               0.008
       91                   0                 0.6                 0.6               0.008
       92                 0.2                 0.6                 0.6               0.008
       93                 0.4                 0.6                 0.6               0.008
       94                 0.6                 0.6                 0.6               0.008
       95                 0.8                 0.6                 0.6               0.008
       96                   0                 0.8                 0.6               0.008
       97                 0.2                 0.8                 0.6               0.008
       98                 0.4                 0.8                 0.6               0.008
       99                 0.6                 0.8                 0.6               0.008
      100                 0.8                 0.8                 0.6               0.008
      101                   0                   0                 0.8               0.008
      102                 0.2                   0                 0.8               0.008
      103                 0.4                   0                 0.8               0.008
      104                 0.6                   0                 0.8               0.008
      105                 0.8                   0                 0.8               0.008
      106                   0                 0.2                 0.8               0.008
      107                 0.2                 0.2                 0.8               0.008
      108                 0.4                 0.2                 0.8               0.008
      109                 0.6                 0.2                 0.8               0.008
      110                 0.8                 0.2                 0.8               0.008
      111                   0                 0.4                 0.8               0.008
      112                 0.2                 0.4                 0.8               0.008
      113                 0.4                 0.4                 0.8               0.008
      114                 0.6                 0.4                 0.8               0.008
      115                 0.8                 0.4                 0.8               0.008
      116                   0                 0.6                 0.8               0.008
      117                 0.2                 0.6                 0.8               0.008
      118                 0.4                 0.6                 0.8               0.008
      119                 0.6                 0.6                 0.8               0.008
      120                 0.8                 0.6                 0.8               0.008
      121                   0                 0.8                 0.8               0.008
      122                 0.2                 0.8                 0.8               0.008
      123                 0.4                 0.8                 0.8               0.008
      124                 0.6                 0.8                 0.8               0.008
      125                 0.8                 0.8                 0.8               0.008

           k-point number in this process = 125
       minimum distributed K point number = 125

  KPOINTS         CARTESIAN_X         CARTESIAN_Y         CARTESIAN_Z              WEIGHT
        1                   0                   0                   0               0.016
        2     0.0621834474442     0.0359016301225                   0               0.016
        3      0.124366894888      0.071803260245                   0               0.016
        4      0.186550342333      0.107704890368                   0               0.016
        5      0.248733789777       0.14360652049                   0               0.016
        6                   0     0.0718032602428                   0               0.016
        7     0.0621834474442      0.107704890365                   0               0.016
        8      0.124366894888      0.143606520488                   0               0.016
        9      0.186550342333       0.17950815061                   0               0.016
       10      0.248733789777      0.215409780733                   0               0.016
       11                   0      0.143606520486                   0               0.016
       12     0.0621834474442      0.179508150608                   0               0.016
       13      0.124366894888      0.215409780731                   0               0.016
       14      0.186550342333      0.251311410853                   0               0.016
       15      0.248733789777      0.287213040976                   0               0.016
       16                   0      0.215409780728                   0               0.016
       17     0.0621834474442      0.251311410851                   0               0.016
       18      0.124366894888      0.287213040973                   0               0.016
       19      0.186550342333      0.323114671096                   0               0.016
       20      0.248733789777      0.359016301218                   0               0.016
       21                   0      0.287213040971                   0               0.016
       22     0.0621834474442      0.323114671094                   0               0.016
       23      0.124366894888      0.359016301216                   0               0.016
       24      0.186550342333      0.394917931339                   0               0.016
       25      0.248733789777      0.430819561461                   0               0.016
       26                   0                   0      0.038168214988               0.016
       27     0.0621834474442     0.0359016301225      0.038168214988               0.016
       28      0.124366894888      0.071803260245      0.038168214988               0.016
       29      0.186550342333      0.107704890368      0.038168214988               0.016
       30      0.248733789777       0.14360652049      0.038168214988               0.016
       31                   0     0.0718032602428      0.038168214988               0.016
       32     0.0621834474442      0.107704890365      0.038168214988               0.016
       33      0.124366894888      0.143606520488      0.038168214988               0.016
       34      0.186550342333       0.17950815061      0.038168214988               0.016
       35      0.248733789777      0.215409780733      0.038168214988               0.016
       36                   0      0.143606520486      0.038168214988               0.016
       37     0.0621834474442      0.179508150608      0.038168214988               0.016
       38      0.124366894888      0.215409780731      0.038168214988               0.016
       39      0.186550342333      0.251311410853      0.038168214988               0.016
       40      0.248733789777      0.287213040976      0.038168214988               0.016
       41                   0      0.215409780728      0.038168214988               0.016
       42     0.0621834474442      0.251311410851      0.038168214988               0.016
       43      0.124366894888      0.287213040973      0.038168214988               0.016
       44      0.186550342333      0.323114671096      0.038168214988               0.016
       45      0.248733789777      0.359016301218      0.038168214988               0.016
       46                   0      0.287213040971      0.038168214988               0.016
       47     0.0621834474442      0.323114671094      0.038168214988               0.016
       48      0.124366894888      0.359016301216      0.038168214988               0.016
       49      0.186550342333      0.394917931339      0.038168214988               0.016
       50      0.248733789777      0.430819561461      0.038168214988               0.016
       51                   0                   0      0.076336429976               0.016
       52     0.0621834474442     0.0359016301225      0.076336429976               0.016
       53      0.124366894888      0.071803260245      0.076336429976               0.016
       54      0.186550342333      0.107704890368      0.076336429976               0.016
       55      0.248733789777       0.14360652049      0.076336429976               0.016
       56                   0     0.0718032602428      0.076336429976               0.016
       57     0.0621834474442      0.107704890365      0.076336429976               0.016
       58      0.124366894888      0.143606520488      0.076336429976               0.016
       59      0.186550342333       0.17950815061      0.076336429976               0.016
       60      0.248733789777      0.215409780733      0.076336429976               0.016
       61                   0      0.143606520486      0.076336429976               0.016
       62     0.0621834474442      0.179508150608      0.076336429976               0.016
       63      0.124366894888      0.215409780731      0.076336429976               0.016
       64      0.186550342333      0.251311410853      0.076336429976               0.016
       65      0.248733789777      0.287213040976      0.076336429976               0.016
       66                   0      0.215409780728      0.076336429976               0.016
       67     0.0621834474442      0.251311410851      0.076336429976               0.016
       68      0.124366894888      0.287213040973      0.076336429976               0.016
       69      0.186550342333      0.323114671096      0.076336429976               0.016
       70      0.248733789777      0.359016301218      0.076336429976               0.016
       71                   0      0.287213040971      0.076336429976               0.016
       72     0.0621834474442      0.323114671094      0.076336429976               0.016
       73      0.124366894888      0.359016301216      0.076336429976               0.016
       74      0.186550342333      0.394917931339      0.076336429976               0.016
       75      0.248733789777      0.430819561461      0.076336429976               0.016
       76                   0                   0      0.114504644964               0.016
       77     0.0621834474442     0.0359016301225      0.114504644964               0.016
       78      0.124366894888      0.071803260245      0.114504644964               0.016
       79      0.186550342333      0.107704890368      0.114504644964               0.016
       80      0.248733789777       0.14360652049      0.114504644964               0.016
       81                   0     0.0718032602428      0.114504644964               0.016
       82     0.0621834474442      0.107704890365      0.114504644964               0.016
       83      0.124366894888      0.143606520488      0.114504644964               0.016
       84      0.186550342333       0.17950815061      0.114504644964               0.016
       85      0.248733789777      0.215409780733      0.114504644964               0.016
       86                   0      0.143606520486      0.114504644964               0.016
       87     0.0621834474442      0.179508150608      0.114504644964               0.016
       88      0.124366894888      0.215409780731      0.114504644964               0.016
       89      0.186550342333      0.251311410853      0.114504644964               0.016
       90      0.248733789777      0.287213040976      0.114504644964               0.016
       91                   0      0.215409780728      0.114504644964               0.016
       92     0.0621834474442      0.251311410851      0.114504644964               0.016
       93      0.124366894888      0.287213040973      0.114504644964               0.016
       94      0.186550342333      0.323114671096      0.114504644964               0.016
       95      0.248733789777      0.359016301218      0.114504644964               0.016
       96                   0      0.287213040971      0.114504644964               0.016
       97     0.0621834474442      0.323114671094      0.114504644964               0.016
       98      0.124366894888      0.359016301216      0.114504644964               0.016
       99      0.186550342333      0.394917931339      0.114504644964               0.016
      100      0.248733789777      0.430819561461      0.114504644964               0.016
      101                   0                   0      0.152672859952               0.016
      102     0.0621834474442     0.0359016301225      0.152672859952               0.016
      103      0.124366894888      0.071803260245      0.152672859952               0.016
      104      0.186550342333      0.107704890368      0.152672859952               0.016
      105      0.248733789777       0.14360652049      0.152672859952               0.016
      106                   0     0.0718032602428      0.152672859952               0.016
      107     0.0621834474442      0.107704890365      0.152672859952               0.016
      108      0.124366894888      0.143606520488      0.152672859952               0.016
      109      0.186550342333       0.17950815061      0.152672859952               0.016
      110      0.248733789777      0.215409780733      0.152672859952               0.016
      111                   0      0.143606520486      0.152672859952               0.016
      112     0.0621834474442      0.179508150608      0.152672859952               0.016
      113      0.124366894888      0.215409780731      0.152672859952               0.016
      114      0.186550342333      0.251311410853      0.152672859952               0.016
      115      0.248733789777      0.287213040976      0.152672859952               0.016
      116                   0      0.215409780728      0.152672859952               0.016
      117     0.0621834474442      0.251311410851      0.152672859952               0.016
      118      0.124366894888      0.287213040973      0.152672859952               0.016
      119      0.186550342333      0.323114671096      0.152672859952               0.016
      120      0.248733789777      0.359016301218      0.152672859952               0.016
      121                   0      0.287213040971      0.152672859952               0.016
      122     0.0621834474442      0.323114671094      0.152672859952               0.016
      123      0.124366894888      0.359016301216      0.152672859952               0.016
      124      0.186550342333      0.394917931339      0.152672859952               0.016
      125      0.248733789777      0.430819561461      0.152672859952               0.016

  KPOINTS            DIRECT_X            DIRECT_Y            DIRECT_Z              WEIGHT
        1                   0                   0                   0               0.016
        2                 0.2                   0                   0               0.016
        3                 0.4                   0                   0               0.016
        4                 0.6                   0                   0               0.016
        5                 0.8                   0                   0               0.016
        6                   0                 0.2                   0               0.016
        7                 0.2                 0.2                   0               0.016
        8                 0.4                 0.2                   0               0.016
        9                 0.6                 0.2                   0               0.016
       10                 0.8                 0.2                   0               0.016
       11                   0                 0.4                   0               0.016
       12                 0.2                 0.4                   0               0.016
       13                 0.4                 0.4                   0               0.016
       14                 0.6                 0.4                   0               0.016
       15                 0.8                 0.4                   0               0.016
       16                   0                 0.6                   0               0.016
       17                 0.2                 0.6                   0               0.016
       18                 0.4                 0.6                   0               0.016
       19                 0.6                 0.6                   0               0.016
       20                 0.8                 0.6                   0               0.016
       21                   0                 0.8                   0               0.016
       22                 0.2                 0.8                   0               0.016
       23                 0.4                 0.8                   0               0.016
       24                 0.6                 0.8                   0               0.016
       25                 0.8                 0.8                   0               0.016
       26                   0                   0                 0.2               0.016
       27                 0.2                   0                 0.2               0.016
       28                 0.4                   0                 0.2               0.016
       29                 0.6                   0                 0.2               0.016
       30                 0.8                   0                 0.2               0.016
       31                   0                 0.2                 0.2               0.016
       32                 0.2                 0.2                 0.2               0.016
       33                 0.4                 0.2                 0.2               0.016
       34                 0.6                 0.2                 0.2               0.016
       35                 0.8                 0.2                 0.2               0.016
       36                   0                 0.4                 0.2               0.016
       37                 0.2                 0.4                 0.2               0.016
       38                 0.4                 0.4                 0.2               0.016
       39                 0.6                 0.4                 0.2               0.016
       40                 0.8                 0.4                 0.2               0.016
       41                   0                 0.6                 0.2               0.016
       42                 0.2                 0.6                 0.2               0.016
       43                 0.4                 0.6                 0.2               0.016
       44                 0.6                 0.6                 0.2               0.016
       45                 0.8                 0.6                 0.2               0.016
       46                   0                 0.8                 0.2               0.016
       47                 0.2                 0.8                 0.2               0.016
       48                 0.4                 0.8                 0.2               0.016
       49                 0.6                 0.8                 0.2               0.016
       50                 0.8                 0.8                 0.2               0.016
       51                   0                   0                 0.4               0.016
       52                 0.2                   0                 0.4               0.016
       53                 0.4                   0                 0.4               0.016
       54                 0.6                   0                 0.4               0.016
       55                 0.8                   0                 0.4               0.016
       56                   0                 0.2                 0.4               0.016
       57                 0.2                 0.2                 0.4               0.016
       58                 0.4                 0.2                 0.4               0.016
       59                 0.6                 0.2                 0.4               0.016
       60                 0.8                 0.2                 0.4               0.016
       61                   0                 0.4                 0.4               0.016
       62                 0.2                 0.4                 0.4               0.016
       63                 0.4                 0.4                 0.4               0.016
       64                 0.6                 0.4                 0.4               0.016
       65                 0.8                 0.4                 0.4               0.016
       66                   0                 0.6                 0.4               0.016
       67                 0.2                 0.6                 0.4               0.016
       68                 0.4                 0.6                 0.4               0.016
       69                 0.6                 0.6                 0.4               0.016
       70                 0.8                 0.6                 0.4               0.016
       71                   0                 0.8                 0.4               0.016
       72                 0.2                 0.8                 0.4               0.016
       73                 0.4                 0.8                 0.4               0.016
       74                 0.6                 0.8                 0.4               0.016
       75                 0.8                 0.8                 0.4               0.016
       76                   0                   0                 0.6               0.016
       77                 0.2                   0                 0.6               0.016
       78                 0.4                   0                 0.6               0.016
       79                 0.6                   0                 0.6               0.016
       80                 0.8                   0                 0.6               0.016
       81                   0                 0.2                 0.6               0.016
       82                 0.2                 0.2                 0.6               0.016
       83                 0.4                 0.2                 0.6               0.016
       84                 0.6                 0.2                 0.6               0.016
       85                 0.8                 0.2                 0.6               0.016
       86                   0                 0.4                 0.6               0.016
       87                 0.2                 0.4                 0.6               0.016
       88                 0.4                 0.4                 0.6               0.016
       89                 0.6                 0.4                 0.6               0.016
       90                 0.8                 0.4                 0.6               0.016
       91                   0                 0.6                 0.6               0.016
       92                 0.2                 0.6                 0.6               0.016
       93                 0.4                 0.6                 0.6               0.016
       94                 0.6                 0.6                 0.6               0.016
       95                 0.8                 0.6                 0.6               0.016
       96                   0                 0.8                 0.6               0.016
       97                 0.2                 0.8                 0.6               0.016
       98                 0.4                 0.8                 0.6               0.016
       99                 0.6                 0.8                 0.6               0.016
      100                 0.8                 0.8                 0.6               0.016
      101                   0                   0                 0.8               0.016
      102                 0.2                   0                 0.8               0.016
      103                 0.4                   0                 0.8               0.016
      104                 0.6                   0                 0.8               0.016
      105                 0.8                   0                 0.8               0.016
      106                   0                 0.2                 0.8               0.016
      107                 0.2                 0.2                 0.8               0.016
      108                 0.4                 0.2                 0.8               0.016
      109                 0.6                 0.2                 0.8               0.016
      110                 0.8                 0.2                 0.8               0.016
      111                   0                 0.4                 0.8               0.016
      112                 0.2                 0.4                 0.8               0.016
      113                 0.4                 0.4                 0.8               0.016
      114                 0.6                 0.4                 0.8               0.016
      115                 0.8                 0.4                 0.8               0.016
      116                   0                 0.6                 0.8               0.016
      117                 0.2                 0.6                 0.8               0.016
      118                 0.4                 0.6                 0.8               0.016
      119                 0.6                 0.6                 0.8               0.016
      120                 0.8                 0.6                 0.8               0.016
      121                   0                 0.8                 0.8               0.016
      122                 0.2                 0.8                 0.8               0.016
      123                 0.4                 0.8                 0.8               0.016
      124                 0.6                 0.8                 0.8               0.016
      125                 0.8                 0.8                 0.8               0.016
 DONE : INIT K-POINTS Time : 0.0412355255929 (SEC)





 >>>>>>>>>>>>>>>>>>>>>>>>>>>>>>>>>>>>>>>>>>>>>>>>>>>>>>>>>>>>>>>>>>>>>>
 |                                                                    |
 | Setup numerical orbitals:                                          |
 | This part setup: numerical atomic orbitals, non-local projectors   |
 | and neutral potential (1D). The atomic orbitals information        |
 | including the radius, angular momentum and zeta number.            |
 | The neutral potential is the sum of local part of pseudopotential  |
 | and potential given by atomic charge, they will cancel out beyond  |
 | a certain radius cutoff, because the Z/r character.                |
 |                                                                    |
 <<<<<<<<<<<<<<<<<<<<<<<<<<<<<<<<<<<<<<<<<<<<<<<<<<<<<<<<<<<<<<<<<<<<<<





 SETUP ONE DIMENSIONAL ORBITALS/POTENTIAL
                        delta k  (1/Bohr) = 0.01
                        delta r    (Bohr) = 0.01
                        dr_uniform (Bohr) = 0.001
                        rmax       (Bohr) = 30
                                    kmesh = 779
      ORBITAL  L  N      nr      dr    RCUT  CHECK_UNIT    NEW_UNIT
            1  0  0     901    0.01       9           1           1
            2  0  1     901    0.01       9           1           1
            3  1  0     901    0.01       9           1           1
            4  1  1     901    0.01       9           1           1
            5  2  0     901    0.01       9           1           1
            6  2  1     901    0.01       9           1           1
      ORBITAL  L  N      nr      dr    RCUT  CHECK_UNIT    NEW_UNIT
            1  0  0     801    0.01       8           1           1
            2  0  1     801    0.01       8           1           1
            3  1  0     801    0.01       8           1           1
            4  1  1     801    0.01       8           1           1
            5  2  0     801    0.01       8           1           1
   DESCRIPTOR  L  N      nr      dr    RCUT  CHECK_UNIT    NEW_UNIT
            1  0  0     505    0.01    5.04        6.33           1
            2  0  1     505    0.01    5.04        1.58           1
            3  0  2     505    0.01    5.04       0.704           1
            4  0  3     505    0.01    5.04       0.396           1
            5  0  4     505    0.01    5.04       0.253           1
            6  0  5     505    0.01    5.04       0.176           1
            7  0  6     505    0.01    5.04       0.129           1
            8  0  7     505    0.01    5.04       0.099           1
            9  0  8     505    0.01    5.04      0.0782           1
           10  0  9     505    0.01    5.04      0.0633           1
           11  0 10     505    0.01    5.04      0.0524           1
           12  0 11     505    0.01    5.04       0.044           1
           13  0 12     505    0.01    5.04      0.0375           1
           14  0 13     505    0.01    5.04      0.0323           1
           15  0 14     505    0.01    5.04      0.0282           1
           16  1  0     505    0.01    5.04        2.95           1
           17  1  1     505    0.01    5.04        1.03           1
           18  1  2     505    0.01    5.04       0.521           1
           19  1  3     505    0.01    5.04       0.314           1
           20  1  4     505    0.01    5.04        0.21           1
           21  1  5     505    0.01    5.04        0.15           1
           22  1  6     505    0.01    5.04       0.113           1
           23  1  7     505    0.01    5.04      0.0878           1
           24  1  8     505    0.01    5.04      0.0703           1
           25  1  9     505    0.01    5.04      0.0575           1
           26  1 10     505    0.01    5.04      0.0479           1
           27  1 11     505    0.01    5.04      0.0406           1
           28  1 12     505    0.01    5.04      0.0348           1
           29  1 13     505    0.01    5.04      0.0302           1
           30  1 14     505    0.01    5.04      0.0264           1
           31  2  0     505    0.01    5.04        1.71           1
           32  2  1     505    0.01    5.04       0.728           1
           33  2  2     505    0.01    5.04       0.403           1
           34  2  3     505    0.01    5.04       0.256           1
           35  2  4     505    0.01    5.04       0.177           1
           36  2  5     505    0.01    5.04        0.13           1
           37  2  6     505    0.01    5.04      0.0994           1
           38  2  7     505    0.01    5.04      0.0785           1
           39  2  8     505    0.01    5.04      0.0635           1
           40  2  9     505    0.01    5.04      0.0525           1
           41  2 10     505    0.01    5.04      0.0441           1
           42  2 11     505    0.01    5.04      0.0376           1
           43  2 12     505    0.01    5.04      0.0324           1
           44  2 13     505    0.01    5.04      0.0282           1
           45  2 14     505    0.01    5.04      0.0248           1
 max number of nonlocal projetors among all species is 6

 SETUP THE TWO-CENTER INTEGRATION TABLES

 SETUP THE DIVISION OF H/S MATRIX
 divide the H&S matrix using 2D block algorithms.
                                     nb2d = 1
                  trace_loc_row dimension = 62
                  trace_loc_col dimension = 62
                                     nloc = 256
 Initialize the descriptor index for DeePKS (lcao line)
 lmax of descriptor = 2
 nmax of descriptor= 15
 total basis (all atoms) for descriptor= 
 Type 1 number_of_atoms 2
 Type 2 number_of_atoms 2
 descriptors_per_atom 135
 total_descriptors 540




 >>>>>>>>>>>>>>>>>>>>>>>>>>>>>>>>>>>>>>>>>>>>>>>>>>>>>>>>>>>>>>>>>>>>>>
 |                                                                    |
 | Setup plane waves:                                                 |
 | Use the energy cutoff and the lattice vectors to generate the      |
 | dimensions of FFT grid. The number of FFT grid on each processor   |
 | is 'nrxx'. The number of plane wave basis in reciprocal space is   |
 | different for charege/potential and wave functions. We also set    |
 | the 'sticks' for the parallel of FFT.                              |
 |                                                                    |
 <<<<<<<<<<<<<<<<<<<<<<<<<<<<<<<<<<<<<<<<<<<<<<<<<<<<<<<<<<<<<<<<<<<<<<





 SETUP THE PLANE WAVE BASIS
     energy cutoff for wavefunc (unit:Ry) = 60
            [fft grid for wave functions] = 30, 30, 50
          [fft grid for charge/potential] = 30, 30, 50
                      [fft grid division] = 2, 2, 2
      [big fft grid for charge/potential] = 15, 15, 25
                                     nbxx = 450
                                     nrxx = 3600

 SETUP PLANE WAVES FOR CHARGE/POTENTIAL
                    number of plane waves = 19843
                         number of sticks = 595

 SETUP PLANE WAVES FOR WAVE FUNCTIONS
                    number of plane waves = 4571
                         number of sticks = 235

 PARALLEL PW FOR CHARGE/POTENTIAL
     PROC   COLUMNS(POT)             PW
        1             38           1250
        2             38           1250
        3             38           1250
        4             38           1250
        5             38           1250
        6             38           1250
        7             38           1250
        8             39           1255
        9             38           1246
       10             36           1228
       11             36           1228
       12             36           1226
       13             36           1228
       14             36           1228
       15             36           1228
       16             36           1226
 --------------- sum -------------------
       16            595          19843

 PARALLEL PW FOR WAVE FUNCTIONS
     PROC     COLUMNS(W)             PW
        1             14            284
        2             16            282
        3             14            286
        4             15            289
        5             14            286
        6             14            288
        7             14            286
        8             16            288
        9             14            286
       10             14            282
       11             14            282
       12             17            281
       13             15            289
       14             16            290
       15             14            282
       16             14            290
 --------------- sum -------------------
       16            235           4571

 SETUP COORDINATES OF PLANE WAVES
              number of total plane waves = 19843

 SETUP COORDINATES OF PLANE WAVES
                            number of |g| = 603
                                  max |g| = 21.6
                                  min |g| = 0
 DONE : INIT PLANEWAVE Time : 10.7 (SEC)

 DONE : INIT CHARGE Time : 10.7 (SEC)

 DONE : INIT POTENTIAL Time : 10.7 (SEC)

                                start_pot = atomic

 -------------------------------------------
 SELF-CONSISTENT
 -------------------------------------------




 >>>>>>>>>>>>>>>>>>>>>>>>>>>>>>>>>>>>>>>>>>>>>>>>>>>>>>>>>>>>>>>>>>>>>>
 |                                                                    |
 | Search adjacent atoms:                                             |
 | Set the adjacent atoms for each atom and set the periodic boundary |
 | condition for the atoms on real space FFT grid. For k-dependent    |
 | algorithm, we also need to set the sparse H and S matrix element   |
 | for each atom.                                                     |
 |                                                                    |
 <<<<<<<<<<<<<<<<<<<<<<<<<<<<<<<<<<<<<<<<<<<<<<<<<<<<<<<<<<<<<<<<<<<<<<





 SETUP SEARCHING RADIUS FOR PROGRAM TO SEARCH ADJACENT ATOMS
                  longest orb rcut (Bohr) = 9
   longest nonlocal projector rcut (Bohr) = 2.5
              searching radius is (Bohr)) = 23
         searching radius unit is (Bohr)) = 1.89

 SETUP EXTENDED REAL SPACE GRID FOR GRID INTEGRATION
                        [real space grid] = 30, 30, 50
               [big cell numbers in grid] = 15, 15, 25
           [meshcell numbers in big cell] = 2, 2, 2
                      [extended fft grid] = 26, 26, 23
              [dimension of extened grid] = 68, 68, 72
                            UnitCellTotal = 75
              Atom number in sub-FFT-grid = 4
    Local orbitals number in sub-FFT-grid = 62
                                      nnr = 25484
                                     nnrg = 248500

 SETUP ARRAY FOR EXTRA WAVE FUNCTIONS
                                     daug = 0
                                nnrg_last = 0
                                 nnrg_now = 248500

 LCAO ALGORITHM ------------- ELEC =    1 --------------------------------
 Memory of pvpR : 1.9 MB

 Density error is 0.126025779467

       Energy                       Rydberg                            eV
   E_KohnSham                -302.126769573                -4110.64558453
     E_Harris                -302.727309066                -4118.81634351
      E_Fermi               +0.730962552922                +9.94525574436

 LCAO ALGORITHM ------------- ELEC =    2 --------------------------------
 Memory of pvpR : 1.89590454102 MB

 Density error is 0.0341052731489

       Energy                       Rydberg                            eV
   E_KohnSham                -302.433937046                 -4114.8248124
     E_Harris                -302.448380571                -4115.02132663
      E_Fermi               +0.887753576954                +12.0785070665

 LCAO ALGORITHM ------------- ELEC =    3 --------------------------------
 Memory of pvpR : 1.89590454102 MB

 Density error is 0.0212920768306

       Energy                       Rydberg                            eV
   E_KohnSham                -302.445362134                 -4114.9802587
     E_Harris                -302.447228105                -4115.00564654
      E_Fermi               +0.868972775383                +11.8229811521

 LCAO ALGORITHM ------------- ELEC =    4 --------------------------------
 Memory of pvpR : 1.89590454102 MB

 Density error is 0.00360658582586

       Energy                       Rydberg                            eV
   E_KohnSham                -302.444988284                 -4114.9751722
     E_Harris                -302.445389206                -4114.98062703
      E_Fermi               +0.863593682864                +11.7497948438

 LCAO ALGORITHM ------------- ELEC =    5 --------------------------------
 Memory of pvpR : 1.89590454102 MB

 Density error is 0.00133299478217

       Energy                       Rydberg                            eV
   E_KohnSham                -302.444344227                -4114.96640937
     E_Harris                -302.444405031                -4114.96723664
      E_Fermi               +0.867581670683                +11.8040542016

 LCAO ALGORITHM ------------- ELEC =    6 --------------------------------
 Memory of pvpR : 1.89590454102 MB

 Density error is 0.000468860253063

       Energy                       Rydberg                            eV
   E_KohnSham                 -302.44427912                -4114.96552353
     E_Harris                -302.444283844                -4114.96558781
      E_Fermi               +0.869060649032                +11.8241767344

 LCAO ALGORITHM ------------- ELEC =    7 --------------------------------
 Memory of pvpR : 1.89590454102 MB

 Density error is 0.000101184740715

       Energy                       Rydberg                            eV
   E_KohnSham                -302.444450467                -4114.96785483
     E_Harris                -302.444450415                -4114.96785412
      E_Fermi                 +0.8687981486                +11.8206052328

 LCAO ALGORITHM ------------- ELEC =    8 --------------------------------
 Memory of pvpR : 1.89590454102 MB

 Density error is 5.67399849278e-05

       Energy                       Rydberg                            eV
   E_KohnSham                -302.444422251                -4114.96747094
     E_Harris                -302.444422334                -4114.96747206
      E_Fermi                +0.86878210783                +11.8203869869

 LCAO ALGORITHM ------------- ELEC =    9 --------------------------------
 Memory of pvpR : 1.89590454102 MB

 Density error is 5.05997178442e-06

       Energy                       Rydberg                            eV
   E_KohnSham                -302.444416239                -4114.96738913
     E_Harris                -302.444416239                -4114.96738914
      E_Fermi               +0.868845848453                +11.8212542226

 LCAO ALGORITHM ------------- ELEC =   10 --------------------------------
 Memory of pvpR : 1.89590454102 MB

 Density error is 1.20598593037e-06

       Energy                       Rydberg                            eV
   E_KohnSham                -302.444420246                -4114.96744365
     E_Harris                -302.444420246                -4114.96744365
      E_Fermi               +0.868847408168                +11.8212754436

 LCAO ALGORITHM ------------- ELEC =   11 --------------------------------
 Memory of pvpR : 1.89590454102 MB

 Density error is 2.84798839465e-07

       Energy                       Rydberg                            eV
   E_KohnSham                -302.444420381                -4114.96744549
     E_Harris                -302.444420381                -4114.96744549
       E_band               +0.529572212075                +7.20519958669
   E_one_elec                -111.810041683                 -1521.2536605
    E_Hartree                +86.3403725032                +1174.72103349
         E_xc                -46.4724949873                -632.290732103
      E_Ewald                -230.625004799                -3137.81416654
      E_demet            -9.48873075708e-14            -1.29100805084e-12
      E_descf                            +0                            +0
     E_efield                            +0                            +0
        E_exx                            +0                            +0
     E_DeePKS             -0.00393194784676              -0.0534968949548
      E_Fermi               +0.868848462496                +11.8212897885

 charge density convergence is achieved
 final etot is -4114.96744549 eV

 STATE ENERGY(eV) AND OCCUPATIONS    NSPIN == 1
 1/125 kpoint (Cartesian) = 0 0 0 (166 pws)
       1       -4.92995      0.0160000
       2       -4.51682      0.0160000
       3       -3.56541      0.0160000
       4       -3.52569      0.0160000
       5       -3.50671      0.0160000
       6       -3.32339      0.0160000
       7       -3.26908      0.0160000
       8       -3.24289      0.0160000
       9       -3.11746      0.0160000
      10       -3.00667      0.0160000
      11       -2.98203      0.0160000
      12       -1.72671      0.0160000
      13        3.03716      0.0160000
      14        8.79243      0.0160000
      15        9.44598      0.0160000
      16        10.0449      0.0160000
      17        10.1413      0.0160000
      18        10.5223      0.0160000
      19        13.0641    8.44115e-13
      20        14.9964        0.00000
      21        19.2917        0.00000
      22        20.3185        0.00000
      23        20.4089        0.00000
      24        21.2950        0.00000
      25        21.5720        0.00000
      26        23.1582        0.00000
      27        27.1382        0.00000
      28        28.2372        0.00000

 2/125 kpoint (Cartesian) = 0.0621834 0.0359016 0.00000 (162 pws)
       1       -4.90542      0.0160000
       2       -4.49484      0.0160000
       3       -3.52566      0.0160000
       4       -3.49862      0.0160000
       5       -3.40785      0.0160000
       6       -3.31263      0.0160000
       7       -3.28725      0.0160000
       8       -3.21010      0.0160000
       9       -3.05393      0.0160000
      10       -2.99257      0.0160000
      11       -2.92670      0.0160000
      12       -1.45311      0.0160000
      13        3.61671      0.0160000
      14        7.17919      0.0160000
      15        8.22736      0.0160000
      16        8.72494      0.0160000
      17        9.73428      0.0160000
      18        9.82683      0.0160000
      19        14.4925        0.00000
      20        16.2740        0.00000
      21        17.8469        0.00000
      22        19.2972        0.00000
      23        20.8630        0.00000
      24        21.0379        0.00000
      25        21.9899        0.00000
      26        23.5583        0.00000
      27        25.0733        0.00000
      28        27.7090        0.00000

 3/125 kpoint (Cartesian) = 0.124367 0.0718033 0.00000 (160 pws)
       1       -4.82423      0.0160000
       2       -4.44641      0.0160000
       3       -3.49009      0.0160000
       4       -3.48602      0.0160000
       5       -3.36605      0.0160000
       6       -3.27777      0.0160000
       7       -3.22818      0.0160000
       8       -3.15859      0.0160000
       9       -3.12073      0.0160000
      10       -2.95219      0.0160000
      11       -2.18715      0.0160000
      12       -1.08484      0.0160000
      13        4.14596      0.0160000
      14        5.16308      0.0160000
      15        6.40617      0.0160000
      16        7.44693      0.0160000
      17        8.78943      0.0160000
      18        9.25763      0.0160000
      19        15.4506        0.00000
      20        15.8353        0.00000
      21        16.2628        0.00000
      22        18.7414        0.00000
      23        20.9214        0.00000
      24        21.5715        0.00000
      25        23.0061        0.00000
      26        24.3068        0.00000
      27        24.4961        0.00000
      28        29.8915        0.00000

 4/125 kpoint (Cartesian) = 0.186550 0.107705 0.00000 (159 pws)
       1       -4.82423      0.0160000
       2       -4.44641      0.0160000
       3       -3.49009      0.0160000
       4       -3.48602      0.0160000
       5       -3.36605      0.0160000
       6       -3.27777      0.0160000
       7       -3.22818      0.0160000
       8       -3.15859      0.0160000
       9       -3.12073      0.0160000
      10       -2.95219      0.0160000
      11       -2.18715      0.0160000
      12       -1.08484      0.0160000
      13        4.14596      0.0160000
      14        5.16308      0.0160000
      15        6.40617      0.0160000
      16        7.44693      0.0160000
      17        8.78943      0.0160000
      18        9.25763      0.0160000
      19        15.4506        0.00000
      20        15.8353        0.00000
      21        16.2628        0.00000
      22        18.7414        0.00000
      23        20.9214        0.00000
      24        21.5715        0.00000
      25        23.0061        0.00000
      26        24.3068        0.00000
      27        24.4961        0.00000
      28        29.8915        0.00000

 5/125 kpoint (Cartesian) = 0.248734 0.143607 0.00000 (155 pws)
       1       -4.90542      0.0160000
       2       -4.49484      0.0160000
       3       -3.52566      0.0160000
       4       -3.49862      0.0160000
       5       -3.40785      0.0160000
       6       -3.31263      0.0160000
       7       -3.28725      0.0160000
       8       -3.21010      0.0160000
       9       -3.05393      0.0160000
      10       -2.99257      0.0160000
      11       -2.92670      0.0160000
      12       -1.45311      0.0160000
      13        3.61671      0.0160000
      14        7.17919      0.0160000
      15        8.22736      0.0160000
      16        8.72494      0.0160000
      17        9.73428      0.0160000
      18        9.82683      0.0160000
      19        14.4925        0.00000
      20        16.2740        0.00000
      21        17.8469        0.00000
      22        19.2972        0.00000
      23        20.8630        0.00000
      24        21.0379        0.00000
      25        21.9899        0.00000
      26        23.5583        0.00000
      27        25.0733        0.00000
      28        27.7090        0.00000

 6/125 kpoint (Cartesian) = 0.00000 0.0718033 0.00000 (162 pws)
       1       -4.89932      0.0160000
       2       -4.47493      0.0160000
       3       -3.48913      0.0160000
       4       -3.46739      0.0160000
       5       -3.43208      0.0160000
       6       -3.30694      0.0160000
       7       -3.28174      0.0160000
       8       -3.21169      0.0160000
       9       -3.07773      0.0160000
      10       -2.99436      0.0160000
      11       -2.94444      0.0160000
      12       -1.45227      0.0160000
      13        3.63754      0.0160000
      14        6.88240      0.0160000
      15        8.16741      0.0160000
      16        8.70251      0.0160000
      17        9.66833      0.0160000
      18        10.1176      0.0160000
      19        14.4441        0.00000
      20        16.3883        0.00000
      21        18.6202        0.00000
      22        19.1774        0.00000
      23        20.3958        0.00000
      24        21.1728        0.00000
      25        22.2591        0.00000
      26        23.2232        0.00000
      27        24.7835        0.00000
      28        27.7632        0.00000

 7/125 kpoint (Cartesian) = 0.0621834 0.107705 0.00000 (162 pws)
       1       -4.83827      0.0160000
       2       -4.43524      0.0160000
       3       -3.48855      0.0160000
       4       -3.42825      0.0160000
       5       -3.38777      0.0160000
       6       -3.29993      0.0160000
       7       -3.25844      0.0160000
       8       -3.16099      0.0160000
       9       -3.08739      0.0160000
      10       -3.00547      0.0160000
      11       -2.43230      0.0160000
      12       -1.09385      0.0160000
      13        4.51568      0.0160000
      14        5.74925      0.0160000
      15        6.13096      0.0160000
      16        7.45013      0.0160000
      17        8.75940      0.0160000
      18        9.02877      0.0160000
      19        15.9764        0.00000
      20        16.8379        0.00000
      21        17.8411        0.00000
      22        18.2788        0.00000
      23        20.2486        0.00000
      24        20.9140        0.00000
      25        21.8734        0.00000
      26        23.9446        0.00000
      27        26.2346        0.00000
      28        27.0222        0.00000

 8/125 kpoint (Cartesian) = 0.124367 0.143607 0.00000 (158 pws)
       1       -4.78924      0.0160000
       2       -4.41285      0.0160000
       3       -3.49683      0.0160000
       4       -3.43243      0.0160000
       5       -3.34113      0.0160000
       6       -3.30258      0.0160000
       7       -3.22971      0.0160000
       8       -3.14475      0.0160000
       9       -3.09539      0.0160000
      10       -2.99246      0.0160000
      11       -1.71358      0.0160000
      12       -1.02771      0.0160000
      13        4.16339      0.0160000
      14        5.55498      0.0160000
      15        5.85558      0.0160000
      16        6.44871      0.0160000
      17        7.97267      0.0160000
      18        8.19582      0.0160000
      19        15.5745        0.00000
      20        17.1424        0.00000
      21        17.6515        0.00000
      22        18.5669        0.00000
      23        20.0461        0.00000
      24        21.4399        0.00000
      25        23.0365        0.00000
      26        23.3371        0.00000
      27        25.4904        0.00000
      28        29.8473        0.00000

 9/125 kpoint (Cartesian) = 0.186550 0.179508 0.00000 (155 pws)
       1       -4.83793      0.0160000
       2       -4.43992      0.0160000
       3       -3.48919      0.0160000
       4       -3.42501      0.0160000
       5       -3.38270      0.0160000
       6       -3.30122      0.0160000
       7       -3.26448      0.0160000
       8       -3.15101      0.0160000
       9       -3.08294      0.0160000
      10       -3.00482      0.0160000
      11       -2.43795      0.0160000
      12       -1.09516      0.0160000
      13        4.51848      0.0160000
      14        5.76193      0.0160000
      15        6.10029      0.0160000
      16        7.41340      0.0160000
      17        8.80369      0.0160000
      18        9.01395      0.0160000
      19        15.9691        0.00000
      20        16.8941        0.00000
      21        17.8303        0.00000
      22        18.3240        0.00000
      23        20.2610        0.00000
      24        21.0079        0.00000
      25        21.7733        0.00000
      26        24.0163        0.00000
      27        26.1070        0.00000
      28        26.8949        0.00000

 10/125 kpoint (Cartesian) = 0.248734 0.215410 0.00000 (159 pws)
       1       -4.89918      0.0160000
       2       -4.47778      0.0160000
       3       -3.48935      0.0160000
       4       -3.46225      0.0160000
       5       -3.43307      0.0160000
       6       -3.30876      0.0160000
       7       -3.28197      0.0160000
       8       -3.20391      0.0160000
       9       -3.07384      0.0160000
      10       -2.99549      0.0160000
      11       -2.95159      0.0160000
      12       -1.45178      0.0160000
      13        3.63972      0.0160000
      14        6.86900      0.0160000
      15        8.15693      0.0160000
      16        8.69053      0.0160000
      17        9.67234      0.0160000
      18        10.1307      0.0160000
      19        14.4369        0.00000
      20        16.3959        0.00000
      21        18.7250        0.00000
      22        19.1907        0.00000
      23        20.4207        0.00000
      24        21.0962        0.00000
      25        22.3129        0.00000
      26        23.1488        0.00000
      27        24.7335        0.00000
      28        27.7151        0.00000

 11/125 kpoint (Cartesian) = 0.00000 0.143607 0.00000 (160 pws)
       1       -4.81414      0.0160000
       2       -4.40117      0.0160000
       3       -3.45585      0.0160000
       4       -3.42814      0.0160000
       5       -3.34967      0.0160000
       6       -3.27623      0.0160000
       7       -3.25579      0.0160000
       8       -3.14418      0.0160000
       9       -3.08911      0.0160000
      10       -2.96316      0.0160000
      11       -2.20258      0.0160000
      12       -1.17675      0.0160000
      13        4.15797      0.0160000
      14        5.22082      0.0160000
      15        5.86326      0.0160000
      16        7.70809      0.0160000
      17        8.31114      0.0160000
      18        9.56047      0.0160000
      19        15.5310        0.00000
      20        16.1861        0.00000
      21        17.1481        0.00000
      22        18.9011        0.00000
      23        20.3116        0.00000
      24        21.3344        0.00000
      25        23.3980        0.00000
      26        23.7043        0.00000
      27        25.2076        0.00000
      28        28.8011        0.00000

 12/125 kpoint (Cartesian) = 0.0621834 0.179508 0.00000 (158 pws)
       1       -4.78497      0.0160000
       2       -4.38824      0.0160000
       3       -3.47367      0.0160000
       4       -3.39831      0.0160000
       5       -3.33345      0.0160000
       6       -3.28644      0.0160000
       7       -3.26251      0.0160000
       8       -3.11940      0.0160000
       9       -3.08764      0.0160000
      10       -2.99532      0.0160000
      11       -1.60496      0.0160000
      12       -1.22045      0.0160000
      13        4.27812      0.0160000
      14        5.13966      0.0160000
      15        5.84655      0.0160000
      16        6.72272      0.0160000
      17        7.59600      0.0160000
      18        8.40923      0.0160000
      19        16.0727        0.00000
      20        17.1975        0.00000
      21        17.6936        0.00000
      22        18.6457        0.00000
      23        20.1524        0.00000
      24        21.0270        0.00000
      25        22.9245        0.00000
      26        23.6958        0.00000
      27        25.7852        0.00000
      28        29.1429        0.00000

 13/125 kpoint (Cartesian) = 0.124367 0.215410 0.00000 (154 pws)
       1       -4.78480      0.0160000
       2       -4.39220      0.0160000
       3       -3.47243      0.0160000
       4       -3.39317      0.0160000
       5       -3.33289      0.0160000
       6       -3.28856      0.0160000
       7       -3.26801      0.0160000
       8       -3.11463      0.0160000
       9       -3.07797      0.0160000
      10       -2.99678      0.0160000
      11       -1.59272      0.0160000
      12       -1.24099      0.0160000
      13        4.32451      0.0160000
      14        5.05291      0.0160000
      15        5.86883      0.0160000
      16        6.74849      0.0160000
      17        7.55269      0.0160000
      18        8.41971      0.0160000
      19        16.1384        0.00000
      20        17.2130        0.00000
      21        17.7188        0.00000
      22        18.6498        0.00000
      23        20.1711        0.00000
      24        20.9291        0.00000
      25        22.9191        0.00000
      26        23.7919        0.00000
      27        25.7045        0.00000
      28        29.0612        0.00000

 14/125 kpoint (Cartesian) = 0.186550 0.251311 0.00000 (153 pws)
       1       -4.81392      0.0160000
       2       -4.40752      0.0160000
       3       -3.44860      0.0160000
       4       -3.42761      0.0160000
       5       -3.34890      0.0160000
       6       -3.28503      0.0160000
       7       -3.25642      0.0160000
       8       -3.13879      0.0160000
       9       -3.07020      0.0160000
      10       -2.96479      0.0160000
      11       -2.20719      0.0160000
      12       -1.18434      0.0160000
      13        4.17598      0.0160000
      14        5.19587      0.0160000
      15        5.84836      0.0160000
      16        7.70955      0.0160000
      17        8.27245      0.0160000
      18        9.56985      0.0160000
      19        15.5158        0.00000
      20        16.2621        0.00000
      21        17.3043        0.00000
      22        18.9339        0.00000
      23        20.2431        0.00000
      24        21.2079        0.00000
      25        23.4492        0.00000
      26        23.7794        0.00000
      27        25.0739        0.00000
      28        28.7021        0.00000

 15/125 kpoint (Cartesian) = 0.248734 0.287213 0.00000 (153 pws)
       1       -4.83240      0.0160000
       2       -4.41814      0.0160000
       3       -3.46091      0.0160000
       4       -3.39517      0.0160000
       5       -3.36874      0.0160000
       6       -3.29325      0.0160000
       7       -3.28119      0.0160000
       8       -3.11294      0.0160000
       9       -3.07911      0.0160000
      10       -2.99412      0.0160000
      11       -2.48662      0.0160000
      12       -1.13544      0.0160000
      13        4.48753      0.0160000
      14        5.61022      0.0160000
      15        6.01867      0.0160000
      16        7.26212      0.0160000
      17        8.75023      0.0160000
      18        9.31189      0.0160000
      19        15.9210        0.00000
      20        17.3720        0.00000
      21        17.9558        0.00000
      22        18.3232        0.00000
      23        20.2820        0.00000
      24        20.7715        0.00000
      25        22.5538        0.00000
      26        24.2979        0.00000
      27        25.4873        0.00000
      28        26.2007        0.00000

 16/125 kpoint (Cartesian) = 0.00000 0.215410 0.00000 (157 pws)
       1       -4.81414      0.0160000
       2       -4.40117      0.0160000
       3       -3.45585      0.0160000
       4       -3.42814      0.0160000
       5       -3.34967      0.0160000
       6       -3.27623      0.0160000
       7       -3.25579      0.0160000
       8       -3.14418      0.0160000
       9       -3.08911      0.0160000
      10       -2.96316      0.0160000
      11       -2.20258      0.0160000
      12       -1.17675      0.0160000
      13        4.15797      0.0160000
      14        5.22082      0.0160000
      15        5.86326      0.0160000
      16        7.70809      0.0160000
      17        8.31114      0.0160000
      18        9.56047      0.0160000
      19        15.5310        0.00000
      20        16.1861        0.00000
      21        17.1481        0.00000
      22        18.9011        0.00000
      23        20.3116        0.00000
      24        21.3344        0.00000
      25        23.3980        0.00000
      26        23.7043        0.00000
      27        25.2076        0.00000
      28        28.8011        0.00000

 17/125 kpoint (Cartesian) = 0.0621834 0.251311 0.00000 (159 pws)
       1       -4.83240      0.0160000
       2       -4.41814      0.0160000
       3       -3.46091      0.0160000
       4       -3.39517      0.0160000
       5       -3.36874      0.0160000
       6       -3.29325      0.0160000
       7       -3.28119      0.0160000
       8       -3.11294      0.0160000
       9       -3.07911      0.0160000
      10       -2.99412      0.0160000
      11       -2.48662      0.0160000
      12       -1.13544      0.0160000
      13        4.48753      0.0160000
      14        5.61022      0.0160000
      15        6.01867      0.0160000
      16        7.26212      0.0160000
      17        8.75023      0.0160000
      18        9.31189      0.0160000
      19        15.9210        0.00000
      20        17.3720        0.00000
      21        17.9558        0.00000
      22        18.3232        0.00000
      23        20.2820        0.00000
      24        20.7715        0.00000
      25        22.5538        0.00000
      26        24.2979        0.00000
      27        25.4873        0.00000
      28        26.2007        0.00000

 18/125 kpoint (Cartesian) = 0.124367 0.287213 0.00000 (155 pws)
       1       -4.81392      0.0160000
       2       -4.40752      0.0160000
[...]
       1       -4.82310      0.0160000
       2       -4.40700      0.0160000
       3       -3.45663      0.0160000
       4       -3.40954      0.0160000
       5       -3.36843      0.0160000
       6       -3.29189      0.0160000
       7       -3.27371      0.0160000
       8       -3.12167      0.0160000
       9       -3.07956      0.0160000
      10       -2.99790      0.0160000
      11       -2.41971      0.0160000
      12       -1.33232      0.0160000
      13        4.41452      0.0160000
      14        5.72446      0.0160000
      15        6.29497      0.0160000
      16        7.30360      0.0160000
      17        8.80747      0.0160000
      18        9.22337      0.0160000
      19        15.7745        0.00000
      20        17.2730        0.00000
      21        17.8779        0.00000
      22        18.3084        0.00000
      23        20.0387        0.00000
      24        20.5635        0.00000
      25        22.9948        0.00000
      26        23.9679        0.00000
      27        25.9592        0.00000
      28        26.9060        0.00000

 116/125 kpoint (Cartesian) = 0.00000 0.215410 0.152673 (159 pws)
       1       -4.80396      0.0160000
       2       -4.38858      0.0160000
       3       -3.45864      0.0160000
       4       -3.42385      0.0160000
       5       -3.36808      0.0160000
       6       -3.27053      0.0160000
       7       -3.25072      0.0160000
       8       -3.14275      0.0160000
       9       -3.09372      0.0160000
      10       -2.96525      0.0160000
      11       -2.14958      0.0160000
      12       -1.30667      0.0160000
      13        3.89016      0.0160000
      14        5.11097      0.0160000
      15        6.37075      0.0160000
      16        7.82235      0.0160000
      17        8.57592      0.0160000
      18        9.42132      0.0160000
      19        15.0778        0.00000
      20        15.8077        0.00000
      21        17.9729        0.00000
      22        18.5093        0.00000
      23        20.4493        0.00000
      24        21.4981        0.00000
      25        22.3615        0.00000
      26        24.0968        0.00000
      27        25.5979        0.00000
      28        28.8539        0.00000

 117/125 kpoint (Cartesian) = 0.0621834 0.251311 0.152673 (156 pws)
       1       -4.82318      0.0160000
       2       -4.40700      0.0160000
       3       -3.45688      0.0160000
       4       -3.40962      0.0160000
       5       -3.37498      0.0160000
       6       -3.29061      0.0160000
       7       -3.27110      0.0160000
       8       -3.12242      0.0160000
       9       -3.07885      0.0160000
      10       -2.99797      0.0160000
      11       -2.41504      0.0160000
      12       -1.32959      0.0160000
      13        4.37491      0.0160000
      14        5.74401      0.0160000
      15        6.32789      0.0160000
      16        7.29808      0.0160000
      17        8.80248      0.0160000
      18        9.22055      0.0160000
      19        15.7552        0.00000
      20        17.3072        0.00000
      21        17.8632        0.00000
      22        18.3109        0.00000
      23        20.0132        0.00000
      24        20.5536        0.00000
      25        23.0126        0.00000
      26        23.9879        0.00000
      27        25.9288        0.00000
      28        26.9246        0.00000

 118/125 kpoint (Cartesian) = 0.124367 0.287213 0.152673 (155 pws)
       1       -4.80408      0.0160000
       2       -4.39555      0.0160000
       3       -3.46572      0.0160000
       4       -3.42328      0.0160000
       5       -3.34256      0.0160000
       6       -3.28848      0.0160000
       7       -3.25679      0.0160000
       8       -3.13400      0.0160000
       9       -3.07376      0.0160000
      10       -2.96993      0.0160000
      11       -2.14930      0.0160000
      12       -1.30802      0.0160000
      13        3.91034      0.0160000
      14        4.98857      0.0160000
      15        6.41155      0.0160000
      16        7.86948      0.0160000
      17        8.58118      0.0160000
      18        9.39465      0.0160000
      19        15.0770        0.00000
      20        16.0348        0.00000
      21        17.5332        0.00000
      22        18.9127        0.00000
      23        20.2939        0.00000
      24        21.4162        0.00000
      25        22.4961        0.00000
      26        23.9598        0.00000
      27        25.6299        0.00000
      28        28.9237        0.00000

 119/125 kpoint (Cartesian) = 0.186550 0.323115 0.152673 (151 pws)
       1       -4.77428      0.0160000
       2       -4.37688      0.0160000
       3       -3.46036      0.0160000
       4       -3.41082      0.0160000
       5       -3.34086      0.0160000
       6       -3.29173      0.0160000
       7       -3.25568      0.0160000
       8       -3.12057      0.0160000
       9       -3.08142      0.0160000
      10       -3.00235      0.0160000
      11       -1.58429      0.0160000
      12       -1.24940      0.0160000
      13        4.08199      0.0160000
      14        4.67194      0.0160000
      15        5.92075      0.0160000
      16        7.36019      0.0160000
      17        7.98360      0.0160000
      18        8.23905      0.0160000
      19        16.1083        0.00000
      20        16.9550        0.00000
      21        17.8868        0.00000
      22        18.4583        0.00000
      23        19.8286        0.00000
      24        20.5711        0.00000
      25        23.2710        0.00000
      26        24.0597        0.00000
      27        25.9783        0.00000
      28        29.0912        0.00000

 120/125 kpoint (Cartesian) = 0.248734 0.359016 0.152673 (151 pws)
       1       -4.77440      0.0160000
       2       -4.37286      0.0160000
       3       -3.46284      0.0160000
       4       -3.40418      0.0160000
       5       -3.34961      0.0160000
       6       -3.29271      0.0160000
       7       -3.24933      0.0160000
       8       -3.12305      0.0160000
       9       -3.09183      0.0160000
      10       -3.00060      0.0160000
      11       -1.59447      0.0160000
      12       -1.23902      0.0160000
      13        4.04399      0.0160000
      14        4.72222      0.0160000
      15        6.05270      0.0160000
      16        7.26647      0.0160000
      17        7.79306      0.0160000
      18        8.38985      0.0160000
      19        15.9563        0.00000
      20        17.3190        0.00000
      21        17.5844        0.00000
      22        18.4355        0.00000
      23        19.9547        0.00000
      24        20.6452        0.00000
      25        23.2141        0.00000
      26        23.8420        0.00000
      27        26.2617        0.00000
      28        29.1128        0.00000

 121/125 kpoint (Cartesian) = 0.00000 0.287213 0.152673 (159 pws)
       1       -4.89641      0.0160000
       2       -4.47246      0.0160000
       3       -3.49253      0.0160000
       4       -3.46892      0.0160000
       5       -3.42224      0.0160000
       6       -3.30748      0.0160000
       7       -3.27613      0.0160000
       8       -3.19592      0.0160000
       9       -3.06993      0.0160000
      10       -2.99406      0.0160000
      11       -2.92022      0.0160000
      12       -1.75324      0.0160000
      13        4.25622      0.0160000
      14        7.04910      0.0160000
      15        7.83859      0.0160000
      16        8.73489      0.0160000
      17        9.45379      0.0160000
      18        10.0433      0.0160000
      19        14.6362        0.00000
      20        16.3855        0.00000
      21        18.5064        0.00000
      22        18.8997        0.00000
      23        20.3668        0.00000
      24        21.2126        0.00000
      25        21.9339        0.00000
      26        23.1204        0.00000
      27        25.5678        0.00000
      28        28.3609        0.00000

 122/125 kpoint (Cartesian) = 0.0621834 0.323115 0.152673 (159 pws)
       1       -4.89734      0.0160000
       2       -4.47510      0.0160000
       3       -3.50419      0.0160000
       4       -3.47430      0.0160000
       5       -3.39748      0.0160000
       6       -3.30898      0.0160000
       7       -3.28579      0.0160000
       8       -3.18874      0.0160000
       9       -3.08430      0.0160000
      10       -2.99662      0.0160000
      11       -2.89792      0.0160000
      12       -1.74927      0.0160000
      13        4.21499      0.0160000
      14        7.07623      0.0160000
      15        7.79438      0.0160000
      16        8.79277      0.0160000
      17        9.50643      0.0160000
      18        9.98475      0.0160000
      19        14.6401        0.00000
      20        16.4512        0.00000
      21        18.2498        0.00000
      22        19.1391        0.00000
      23        20.5006        0.00000
      24        20.9589        0.00000
      25        22.0361        0.00000
      26        22.9929        0.00000
      27        25.6411        0.00000
      28        28.2430        0.00000

 123/125 kpoint (Cartesian) = 0.124367 0.359016 0.152673 (154 pws)
       1       -4.83015      0.0160000
       2       -4.42907      0.0160000
       3       -3.48545      0.0160000
       4       -3.42653      0.0160000
       5       -3.39826      0.0160000
       6       -3.29511      0.0160000
       7       -3.25942      0.0160000
       8       -3.16012      0.0160000
       9       -3.08127      0.0160000
      10       -3.00998      0.0160000
      11       -2.37114      0.0160000
      12       -1.30277      0.0160000
      13        4.51653      0.0160000
      14        5.89289      0.0160000
      15        6.56302      0.0160000
      16        7.20819      0.0160000
      17        8.55165      0.0160000
      18        9.17761      0.0160000
      19        15.7156        0.00000
      20        16.9260        0.00000
      21        17.9056        0.00000
      22        18.4524        0.00000
      23        20.0418        0.00000
      24        20.5901        0.00000
      25        22.2299        0.00000
      26        23.8707        0.00000
      27        26.4962        0.00000
      28        26.9677        0.00000

 124/125 kpoint (Cartesian) = 0.186550 0.394918 0.152673 (150 pws)
       1       -4.77911      0.0160000
       2       -4.39794      0.0160000
       3       -3.48347      0.0160000
       4       -3.43822      0.0160000
       5       -3.35228      0.0160000
       6       -3.30238      0.0160000
       7       -3.23576      0.0160000
       8       -3.14829      0.0160000
       9       -3.09457      0.0160000
      10       -2.99679      0.0160000
      11       -1.68452      0.0160000
      12       -1.10273      0.0160000
      13        4.05984      0.0160000
      14        5.37673      0.0160000
      15        5.67483      0.0160000
      16        7.07134      0.0160000
      17        7.68286      0.0160000
      18        8.58304      0.0160000
      19        15.6150        0.00000
      20        17.2650        0.00000
      21        17.7098        0.00000
      22        18.3467        0.00000
      23        19.8060        0.00000
      24        20.6884        0.00000
      25        23.1700        0.00000
      26        23.8453        0.00000
      27        25.8537        0.00000
      28        29.5686        0.00000

 125/125 kpoint (Cartesian) = 0.248734 0.430820 0.152673 (150 pws)
       1       -4.82832      0.0160000
       2       -4.42550      0.0160000
       3       -3.48122      0.0160000
       4       -3.43633      0.0160000
       5       -3.37875      0.0160000
       6       -3.30261      0.0160000
       7       -3.26827      0.0160000
       8       -3.15850      0.0160000
       9       -3.08611      0.0160000
      10       -3.00806      0.0160000
      11       -2.38037      0.0160000
      12       -1.31459      0.0160000
      13        4.66740      0.0160000
      14        5.84521      0.0160000
      15        6.46811      0.0160000
      16        7.25326      0.0160000
      17        8.50377      0.0160000
      18        9.16175      0.0160000
      19        15.8919        0.00000
      20        16.6996        0.00000
      21        17.9845        0.00000
      22        18.3580        0.00000
      23        20.0804        0.00000
      24        20.8387        0.00000
      25        21.9514        0.00000
      26        23.8897        0.00000
      27        26.4019        0.00000
      28        27.3373        0.00000

 EFERMI = 11.82128978849067 eV
 OUT.ABACUS/ final etot is -4114.967445489206 eV
 Descriptors have been printed to .//descriptor.dat
 Calculate the energy density matrix with k 
                                      irr = 25484
                                 LNNR.nnr = 25484
                                      irr = 25484
                                 LNNR.nnr = 25484
 Calculate the energy density matrix with k 
                                      irr = 25484
                                 LNNR.nnr = 25484
                                      irr = 25484
                                 LNNR.nnr = 25484
 LNNR.nnrg in cal_force_k = 248500
 F_delta has been printed to .//F_delta.dat
 correction force for each atom along direction 1 is -0.000216893
 correction force for each atom along direction 2 is -9.82102e-05
 correction force for each atom along direction 3 is 0.000277341

 ><><><><><><><><><><><><><><><><><><><><><><

    TOTAL-FORCE (eV/Angstrom)

 ><><><><><><><><><><><><><><><><><><><><><><

     atom              x              y              z
      Ga1    -0.23904534    -0.19154610    +0.62331297
      Ga2     +1.3846238    +0.37231789     -1.0707775
       N1     -1.6237119    -0.44783505    -0.97353506
       N2    +0.47813348    +0.26706327     +1.4209996


 --------------------------------------------
 !FINAL_ETOT_IS -4114.967445489206 eV
 --------------------------------------------






  |CLASS_NAME---------|NAME---------------|TIME(Sec)-----|CALLS----|AVG------|PER%-------
                                      total         228.33        11       21.   1.0e+02%
               Run_lcao           lcao_line         228.32         1   2.3e+02    1.e+02%
            ORB_control      read_orb_first        0.67080         1      0.67      0.29%
          LCAO_Orbitals       Read_Orbitals        0.67080         1      0.67      0.29%
            NOrbital_Lm       extra_uniform        0.52331        56    0.0093      0.23%
          Mathzone_Add1       Uni_Deriv_Phi        0.49040        56    0.0088      0.21%
            ORB_control      set_orb_tables         9.8512         1       9.9       4.3%
         ORB_gen_tables          gen_tables         9.8512         1       9.9       4.3%
          ORB_table_phi          init_Table         2.1661         1       2.2      0.95%
          ORB_table_phi      cal_ST_Phi12_R         2.1479       270    0.0080      0.94%
         ORB_table_beta     init_Table_Beta         1.0769         1       1.1      0.47%
         ORB_table_beta       VNL_PhiBeta_R         1.0699       158    0.0068      0.47%
        ORB_table_alpha    init_Table_Alpha         6.3940         1       6.4       2.8%
        ORB_table_alpha        S_PhiAlpha_R         6.3557       750    0.0085       2.8%
              LOOP_ions            opt_ions         217.54         1   2.2e+02       95.%
              LOOP_elec     solve_elec_stru         145.37         1   1.5e+02       64.%
            Grid_Driver           Find_atom        0.29713     11296   2.6e-05      0.13%
              LOOP_elec       before_solver        0.35262         1      0.35      0.15%
            LCAO_Hamilt   set_lcao_matrices        0.14710         1      0.15     0.064%
        LCAO_gen_fixedHbuild_Nonlocal_mu_new        0.36314         2      0.18      0.16%
            LCAO_Deepks      build_psialpha        0.19962         1      0.20     0.087%
         ORB_gen_tables  snap_psialpha_half        0.18421      2162   8.5e-05     0.081%
              LOOP_elec              solver         144.95         1   1.4e+02       63.%
               ELEC_scf                 scf         144.95         1   1.4e+02       63.%
             H_Ewald_pw       compute_ewald        0.18249         1      0.18     0.080%
          ELEC_cbands_k           cal_bands         134.05        11       12.       59.%
            LCAO_Deepks  cal_projected_DM_k         75.244        13       5.8       33.%
        LCAO_DESCRIPTOR       add_v_delta_k         31.211        11       2.8       14.%
                 Gint_k              vlocal         6.0567        11      0.55       2.7%
             Efficience              each_k         17.475      1375     0.013       7.7%
             Efficience                 H_k         12.055      1375    0.0088       5.3%
            LCAO_Hamilt        calculate_Hk         12.052      1375    0.0088       5.3%
                 Gint_k        folding_vl_k         2.4704      1375    0.0018       1.1%
                 Gint_k              Distri         1.3196      1375   0.00096      0.58%
               LCAO_nnr      folding_fixedH         9.5730      1375    0.0070       4.2%
             Efficience             diago_k         5.4183      1375    0.0039       2.4%
      Diago_LCAO_Matrix          elpa_solve         5.1488      1375    0.0037       2.3%
      Diago_LCAO_Matrix    gath_eig_complex        0.19331      1375   0.00014     0.085%
      Local_Orbital_Cha           sum_bands         10.618        11      0.97       4.7%
            LCAO_Charge            cal_dk_k         6.0988        11      0.55       2.7%
                 Gint_k           cal_rho_k         3.8271        11      0.35       1.7%
              LOOP_ions        force_stress         64.320         1       64.       28.%
      Force_Stress_LCAO      getForceStress         64.319         1       64.       28.%
           Force_LCAO_k            ftable_k         25.618         1       26.       11.%
           Force_LCAO_k          allocate_k        0.37729         1      0.38      0.17%
           Force_LCAO_k      cal_foverlap_k         1.0802         1       1.1      0.47%
           Force_LCAO_k           set_EDM_k         2.0630         2       1.0      0.90%
           Force_LCAO_k      cal_fvl_dphi_k         5.6154         1       5.6       2.5%
                 Gint_k     svl_k_RealSpace         5.5717         1       5.6       2.4%
                 Gint_k   evaluate_vl_force         4.9781       450     0.011       2.2%
                 Gint_k       folding_force        0.35411         1      0.35      0.16%
           Force_LCAO_kcal_fvnl_dbeta_k_new        0.79739         1      0.80      0.35%
            LCAO_Deepkscal_f_delta_hf_k_new         8.8050         1       8.8       3.9%
            LCAO_Deepks          cal_gdmx_k         38.609         1       39.       17.%
 ----------------------------------------------------------------------------------------

 CLASS_NAME---------|NAME---------------|MEMORY(MB)--------
                                         2.920e+04
        ORB_table_phi               Jl(x)          107.2
      ORB_table_alpha           Table_DSR          8.988
        ORB_table_phi         Table_SR&TR          3.674
  LocalOrbital_Charge      Density_Matrix          1.896
        allocate_pvpR        pvpR_reduced          1.896
        init_meshball        meshball_pos          1.507
        Grid_Meshcell        index2normal          1.270
        Grid_Meshcell         index2ucell          1.270
       ORB_table_beta            Table_NR          1.171
 ----------------------------------------------------------

 Start  Time  : Wed Apr  6 22:26:27 2022
 Finish Time  : Wed Apr  6 22:30:15 2022
 Total  Time  : 0 h 3 mins 48 secs 
