                                                                                     
                             WELCOME TO ABACUS                                       
                                                                                     
               'Atomic-orbital Based Ab-initio Computation at UStc'                  
                                                                                     
                     Website: http://abacus.ustc.edu.cn/                             
                                                                                     
    Version: Parallel, in development
    Processor Number is 16
    Start Time is Thu Mar 10 14:13:51 2022
                                                                                     
 ------------------------------------------------------------------------------------

 READING GENERAL INFORMATION
                           global_out_dir = OUT.ABACUS/
                           global_in_card = INPUT
                               pseudo_dir = 
                              orbital_dir = 
                              pseudo_type = auto
                                    DRANK = 1
                                    DSIZE = 16
                                   DCOLOR = 1
                                    GRANK = 1
                                    GSIZE = 1




 >>>>>>>>>>>>>>>>>>>>>>>>>>>>>>>>>>>>>>>>>>>>>>>>>>>>>>>>>>>>>>>>>>>>>>
 |                                                                    |
 | Reading atom information in unitcell:                              |
 | From the input file and the structure file we know the number of   |
 | different elments in this unitcell, then we list the detail        |
 | information for each element, especially the zeta and polar atomic |
 | orbital number for each element. The total atom number is counted. |
 | We calculate the nearest atom distance for each atom and show the  |
 | Cartesian and Direct coordinates for each atom. We list the file   |
 | address for atomic orbitals. The volume and the lattice vectors    |
 | in real and reciprocal space is also shown.                        |
 |                                                                    |
 <<<<<<<<<<<<<<<<<<<<<<<<<<<<<<<<<<<<<<<<<<<<<<<<<<<<<<<<<<<<<<<<<<<<<<




 READING UNITCELL INFORMATION
                                    ntype = 3
                 atom label for species 1 = Cs
                 atom label for species 2 = Pb
                 atom label for species 3 = I
                  lattice constant (Bohr) = 1.88973
              lattice constant (Angstrom) = 1

 READING ATOM TYPE 1
                               atom label = Cs
                      L=0, number of zeta = 4
                      L=1, number of zeta = 2
                      L=2, number of zeta = 1
             number of atom for this type = 1
                      start magnetization = FALSE

 READING ATOM TYPE 2
                               atom label = Pb
                      L=0, number of zeta = 2
                      L=1, number of zeta = 2
                      L=2, number of zeta = 2
             number of atom for this type = 1
                      start magnetization = FALSE

 READING ATOM TYPE 3
                               atom label = I
                      L=0, number of zeta = 2
                      L=1, number of zeta = 2
                      L=2, number of zeta = 2
             number of atom for this type = 3
                      start magnetization = FALSE
                      start magnetization = FALSE
                      start magnetization = FALSE

                        TOTAL ATOM NUMBER = 5

 CARTESIAN COORDINATES ( UNIT = 1.88973 Bohr ).
         atom                   x                   y                   z                 mag                  vx                  vy                  vz
     tauc_Cs1         3.155831861         3.195950776         3.158998281                   0                   0                   0                   0
     tauc_Pb1     0.0523798529996     0.0245819980056        6.2824734018                   0                   0                   0                   0
      tauc_I1      0.128178746003    0.00596038399594         3.156540016                   0                   0                   0                   0
      tauc_I2     0.0417359180047         3.247276764      0.106215495996                   0                   0                   0                   0
      tauc_I3         3.147756969     0.0444214460029     0.0100486959987                   0                   0                   0                   0


 READING ORBITAL FILE NAMES FOR LCAO
 orbital file: /root/Orb_SG15_DZP_E60_Standard_v1.0/Cs_gga_11au_60Ry_4s2p1d.orb
 orbital file: /root/Orb_SG15_DZP_E60_Standard_v1.0/Pb_gga_9au_60Ry_2s2p2d.orb
 orbital file: /root/Orb_SG15_DZP_E60_Standard_v1.0/I_gga_8au_60Ry_2s2p2d.orb

                          Volume (Bohr^3) = 1780.79088407
                             Volume (A^3) = 263.885667834

 Lattice vectors: (Cartesian coordinate: in unit of a_0)
        +6.4141449928                  +0                  +0
                   +0       +6.4141449928                  +0
                   +0                  +0       +6.4141449928
 Reciprocal vectors: (Cartesian coordinate: in unit of 2 pi/a_0)
      +0.155905424826                  +0                  +0
                   +0     +0.155905424826                  +0
                   +0                  -0     +0.155905424826




 >>>>>>>>>>>>>>>>>>>>>>>>>>>>>>>>>>>>>>>>>>>>>>>>>>>>>>>>>>>>>>>>>>>>>>
 |                                                                    |
 | Reading pseudopotentials files:                                    |
 | The pseudopotential file is in UPF format. The 'NC' indicates that |
 | the type of pseudopotential is 'norm conserving'. Functional of    |
 | exchange and correlation is decided by 4 given parameters in UPF   |
 | file.  We also read in the 'core correction' if there exists.      |
 | Also we can read the valence electrons number and the maximal      |
 | angular momentum used in this pseudopotential. We also read in the |
 | trail wave function, trail atomic density and local-pseudopotential|
 | on logrithmic grid. The non-local pseudopotential projector is also|
 | read in if there is any.                                           |
 |                                                                    |
 <<<<<<<<<<<<<<<<<<<<<<<<<<<<<<<<<<<<<<<<<<<<<<<<<<<<<<<<<<<<<<<<<<<<<<




                PAO radial cut off (Bohr) = 15

 Read in pseudopotential file is /root/SG15_ONCV_v1.0_upf/Cs_ONCV_PBE-1.0.upf
                     pseudopotential type = NC
                            functional Ex = PBE
                            functional Ec = 
                          functional GCEx = 
                          functional GCEc = 
                 nonlocal core correction = 0
                        valence electrons = 9
                                     lmax = 2
                           number of zeta = 0
                     number of projectors = 6
                           L of projector = 0
                           L of projector = 0
                           L of projector = 1
                           L of projector = 1
                           L of projector = 2
                           L of projector = 2

 XC functional updated to : 
                            functional Ex = PBE
                            functional Ec = 
                          functional GCEx = 
                          functional GCEc = 
                PAO radial cut off (Bohr) = 15

 Read in pseudopotential file is /root/SG15_ONCV_v1.0_upf/Pb_ONCV_PBE-1.0.upf
                     pseudopotential type = NC
                            functional Ex = PBE
                            functional Ec = 
                          functional GCEx = 
                          functional GCEc = 
                 nonlocal core correction = 0
                        valence electrons = 14
                                     lmax = 3
                           number of zeta = 0
                     number of projectors = 8
                           L of projector = 0
                           L of projector = 0
                           L of projector = 1
                           L of projector = 1
                           L of projector = 2
                           L of projector = 2
                           L of projector = 3
                           L of projector = 3

 XC functional updated to : 
                            functional Ex = PBE
                            functional Ec = 
                          functional GCEx = 
                          functional GCEc = 
                PAO radial cut off (Bohr) = 15

 Read in pseudopotential file is /root/SG15_ONCV_v1.0_upf/I_ONCV_PBE-1.0.upf
                     pseudopotential type = NC
                            functional Ex = PBE
                            functional Ec = 
                          functional GCEx = 
                          functional GCEc = 
                 nonlocal core correction = 0
                        valence electrons = 17
                                     lmax = 2
                           number of zeta = 0
                     number of projectors = 6
                           L of projector = 0
                           L of projector = 0
                           L of projector = 1
                           L of projector = 1
                           L of projector = 2
                           L of projector = 2

 XC functional updated to : 
                            functional Ex = PBE
                            functional Ec = 
                          functional GCEx = 
                          functional GCEc = 
     initial pseudo atomic orbital number = 0
                                   NLOCAL = 87

 SETUP THE ELECTRONS NUMBER
            electron number of element Cs = 9
      total electron number of element Cs = 9
            electron number of element Pb = 14
      total electron number of element Pb = 14
             electron number of element I = 17
       total electron number of element I = 51
                           occupied bands = 37
                                   NLOCAL = 87
                                   NBANDS = 47
                                   NBANDS = 47
 DONE : SETUP UNITCELL Time : 0.0502170625763 (SEC)





 >>>>>>>>>>>>>>>>>>>>>>>>>>>>>>>>>>>>>>>>>>>>>>>>>>>>>>>>>>>>>>>>>>>>>>
 |                                                                    |
 | Setup K-points                                                     |
 | We setup the k-points according to input parameters.               |
 | The reduced k-points are set according to symmetry operations.     |
 | We treat the spin as another set of k-points.                      |
 |                                                                    |
 <<<<<<<<<<<<<<<<<<<<<<<<<<<<<<<<<<<<<<<<<<<<<<<<<<<<<<<<<<<<<<<<<<<<<<





 SETUP K-POINTS
                                    nspin = 1
                   Input type of k points = Monkhorst-Pack(Gamma)
                                   nkstot = 64

  KPOINTS            DIRECT_X            DIRECT_Y            DIRECT_Z              WEIGHT
        1                   0                   0                   0            0.015625
        2                0.25                   0                   0            0.015625
        3                 0.5                   0                   0            0.015625
        4                0.75                   0                   0            0.015625
        5                   0                0.25                   0            0.015625
        6                0.25                0.25                   0            0.015625
        7                 0.5                0.25                   0            0.015625
        8                0.75                0.25                   0            0.015625
        9                   0                 0.5                   0            0.015625
       10                0.25                 0.5                   0            0.015625
       11                 0.5                 0.5                   0            0.015625
       12                0.75                 0.5                   0            0.015625
       13                   0                0.75                   0            0.015625
       14                0.25                0.75                   0            0.015625
       15                 0.5                0.75                   0            0.015625
       16                0.75                0.75                   0            0.015625
       17                   0                   0                0.25            0.015625
       18                0.25                   0                0.25            0.015625
       19                 0.5                   0                0.25            0.015625
       20                0.75                   0                0.25            0.015625
       21                   0                0.25                0.25            0.015625
       22                0.25                0.25                0.25            0.015625
       23                 0.5                0.25                0.25            0.015625
       24                0.75                0.25                0.25            0.015625
       25                   0                 0.5                0.25            0.015625
       26                0.25                 0.5                0.25            0.015625
       27                 0.5                 0.5                0.25            0.015625
       28                0.75                 0.5                0.25            0.015625
       29                   0                0.75                0.25            0.015625
       30                0.25                0.75                0.25            0.015625
       31                 0.5                0.75                0.25            0.015625
       32                0.75                0.75                0.25            0.015625
       33                   0                   0                 0.5            0.015625
       34                0.25                   0                 0.5            0.015625
       35                 0.5                   0                 0.5            0.015625
       36                0.75                   0                 0.5            0.015625
       37                   0                0.25                 0.5            0.015625
       38                0.25                0.25                 0.5            0.015625
       39                 0.5                0.25                 0.5            0.015625
       40                0.75                0.25                 0.5            0.015625
       41                   0                 0.5                 0.5            0.015625
       42                0.25                 0.5                 0.5            0.015625
       43                 0.5                 0.5                 0.5            0.015625
       44                0.75                 0.5                 0.5            0.015625
       45                   0                0.75                 0.5            0.015625
       46                0.25                0.75                 0.5            0.015625
       47                 0.5                0.75                 0.5            0.015625
       48                0.75                0.75                 0.5            0.015625
       49                   0                   0                0.75            0.015625
       50                0.25                   0                0.75            0.015625
       51                 0.5                   0                0.75            0.015625
       52                0.75                   0                0.75            0.015625
       53                   0                0.25                0.75            0.015625
       54                0.25                0.25                0.75            0.015625
       55                 0.5                0.25                0.75            0.015625
       56                0.75                0.25                0.75            0.015625
       57                   0                 0.5                0.75            0.015625
       58                0.25                 0.5                0.75            0.015625
       59                 0.5                 0.5                0.75            0.015625
       60                0.75                 0.5                0.75            0.015625
       61                   0                0.75                0.75            0.015625
       62                0.25                0.75                0.75            0.015625
       63                 0.5                0.75                0.75            0.015625
       64                0.75                0.75                0.75            0.015625

           k-point number in this process = 64
       minimum distributed K point number = 64

  KPOINTS         CARTESIAN_X         CARTESIAN_Y         CARTESIAN_Z              WEIGHT
        1                   0                   0                   0             0.03125
        2     0.0389763562066                   0                   0             0.03125
        3     0.0779527124132                   0                   0             0.03125
        4       0.11692906862                   0                   0             0.03125
        5                   0     0.0389763562066                   0             0.03125
        6     0.0389763562066     0.0389763562066                   0             0.03125
        7     0.0779527124132     0.0389763562066                   0             0.03125
        8       0.11692906862     0.0389763562066                   0             0.03125
        9                   0     0.0779527124132                   0             0.03125
       10     0.0389763562066     0.0779527124132                   0             0.03125
       11     0.0779527124132     0.0779527124132                   0             0.03125
       12       0.11692906862     0.0779527124132                   0             0.03125
       13                   0       0.11692906862                   0             0.03125
       14     0.0389763562066       0.11692906862                   0             0.03125
       15     0.0779527124132       0.11692906862                   0             0.03125
       16       0.11692906862       0.11692906862                   0             0.03125
       17                   0                   0     0.0389763562066             0.03125
       18     0.0389763562066                   0     0.0389763562066             0.03125
       19     0.0779527124132                   0     0.0389763562066             0.03125
       20       0.11692906862                   0     0.0389763562066             0.03125
       21                   0     0.0389763562066     0.0389763562066             0.03125
       22     0.0389763562066     0.0389763562066     0.0389763562066             0.03125
       23     0.0779527124132     0.0389763562066     0.0389763562066             0.03125
       24       0.11692906862     0.0389763562066     0.0389763562066             0.03125
       25                   0     0.0779527124132     0.0389763562066             0.03125
       26     0.0389763562066     0.0779527124132     0.0389763562066             0.03125
       27     0.0779527124132     0.0779527124132     0.0389763562066             0.03125
       28       0.11692906862     0.0779527124132     0.0389763562066             0.03125
       29                   0       0.11692906862     0.0389763562066             0.03125
       30     0.0389763562066       0.11692906862     0.0389763562066             0.03125
       31     0.0779527124132       0.11692906862     0.0389763562066             0.03125
       32       0.11692906862       0.11692906862     0.0389763562066             0.03125
       33                   0                   0     0.0779527124132             0.03125
       34     0.0389763562066                   0     0.0779527124132             0.03125
       35     0.0779527124132                   0     0.0779527124132             0.03125
       36       0.11692906862                   0     0.0779527124132             0.03125
       37                   0     0.0389763562066     0.0779527124132             0.03125
       38     0.0389763562066     0.0389763562066     0.0779527124132             0.03125
       39     0.0779527124132     0.0389763562066     0.0779527124132             0.03125
       40       0.11692906862     0.0389763562066     0.0779527124132             0.03125
       41                   0     0.0779527124132     0.0779527124132             0.03125
       42     0.0389763562066     0.0779527124132     0.0779527124132             0.03125
       43     0.0779527124132     0.0779527124132     0.0779527124132             0.03125
       44       0.11692906862     0.0779527124132     0.0779527124132             0.03125
       45                   0       0.11692906862     0.0779527124132             0.03125
       46     0.0389763562066       0.11692906862     0.0779527124132             0.03125
       47     0.0779527124132       0.11692906862     0.0779527124132             0.03125
       48       0.11692906862       0.11692906862     0.0779527124132             0.03125
       49                   0                   0       0.11692906862             0.03125
       50     0.0389763562066                   0       0.11692906862             0.03125
       51     0.0779527124132                   0       0.11692906862             0.03125
       52       0.11692906862                   0       0.11692906862             0.03125
       53                   0     0.0389763562066       0.11692906862             0.03125
       54     0.0389763562066     0.0389763562066       0.11692906862             0.03125
       55     0.0779527124132     0.0389763562066       0.11692906862             0.03125
       56       0.11692906862     0.0389763562066       0.11692906862             0.03125
       57                   0     0.0779527124132       0.11692906862             0.03125
       58     0.0389763562066     0.0779527124132       0.11692906862             0.03125
       59     0.0779527124132     0.0779527124132       0.11692906862             0.03125
       60       0.11692906862     0.0779527124132       0.11692906862             0.03125
       61                   0       0.11692906862       0.11692906862             0.03125
       62     0.0389763562066       0.11692906862       0.11692906862             0.03125
       63     0.0779527124132       0.11692906862       0.11692906862             0.03125
       64       0.11692906862       0.11692906862       0.11692906862             0.03125

  KPOINTS            DIRECT_X            DIRECT_Y            DIRECT_Z              WEIGHT
        1                   0                   0                   0             0.03125
        2                0.25                   0                   0             0.03125
        3                 0.5                   0                   0             0.03125
        4                0.75                   0                   0             0.03125
        5                   0                0.25                   0             0.03125
        6                0.25                0.25                   0             0.03125
        7                 0.5                0.25                   0             0.03125
        8                0.75                0.25                   0             0.03125
        9                   0                 0.5                   0             0.03125
       10                0.25                 0.5                   0             0.03125
       11                 0.5                 0.5                   0             0.03125
       12                0.75                 0.5                   0             0.03125
       13                   0                0.75                   0             0.03125
       14                0.25                0.75                   0             0.03125
       15                 0.5                0.75                   0             0.03125
       16                0.75                0.75                   0             0.03125
       17                   0                   0                0.25             0.03125
       18                0.25                   0                0.25             0.03125
       19                 0.5                   0                0.25             0.03125
       20                0.75                   0                0.25             0.03125
       21                   0                0.25                0.25             0.03125
       22                0.25                0.25                0.25             0.03125
       23                 0.5                0.25                0.25             0.03125
       24                0.75                0.25                0.25             0.03125
       25                   0                 0.5                0.25             0.03125
       26                0.25                 0.5                0.25             0.03125
       27                 0.5                 0.5                0.25             0.03125
       28                0.75                 0.5                0.25             0.03125
       29                   0                0.75                0.25             0.03125
       30                0.25                0.75                0.25             0.03125
       31                 0.5                0.75                0.25             0.03125
       32                0.75                0.75                0.25             0.03125
       33                   0                   0                 0.5             0.03125
       34                0.25                   0                 0.5             0.03125
       35                 0.5                   0                 0.5             0.03125
       36                0.75                   0                 0.5             0.03125
       37                   0                0.25                 0.5             0.03125
       38                0.25                0.25                 0.5             0.03125
       39                 0.5                0.25                 0.5             0.03125
       40                0.75                0.25                 0.5             0.03125
       41                   0                 0.5                 0.5             0.03125
       42                0.25                 0.5                 0.5             0.03125
       43                 0.5                 0.5                 0.5             0.03125
       44                0.75                 0.5                 0.5             0.03125
       45                   0                0.75                 0.5             0.03125
       46                0.25                0.75                 0.5             0.03125
       47                 0.5                0.75                 0.5             0.03125
       48                0.75                0.75                 0.5             0.03125
       49                   0                   0                0.75             0.03125
       50                0.25                   0                0.75             0.03125
       51                 0.5                   0                0.75             0.03125
       52                0.75                   0                0.75             0.03125
       53                   0                0.25                0.75             0.03125
       54                0.25                0.25                0.75             0.03125
       55                 0.5                0.25                0.75             0.03125
       56                0.75                0.25                0.75             0.03125
       57                   0                 0.5                0.75             0.03125
       58                0.25                 0.5                0.75             0.03125
       59                 0.5                 0.5                0.75             0.03125
       60                0.75                 0.5                0.75             0.03125
       61                   0                0.75                0.75             0.03125
       62                0.25                0.75                0.75             0.03125
       63                 0.5                0.75                0.75             0.03125
       64                0.75                0.75                0.75             0.03125
 DONE : INIT K-POINTS Time : 0.0521131518661 (SEC)





 >>>>>>>>>>>>>>>>>>>>>>>>>>>>>>>>>>>>>>>>>>>>>>>>>>>>>>>>>>>>>>>>>>>>>>
 |                                                                    |
 | Setup numerical orbitals:                                          |
 | This part setup: numerical atomic orbitals, non-local projectors   |
 | and neutral potential (1D). The atomic orbitals information        |
 | including the radius, angular momentum and zeta number.            |
 | The neutral potential is the sum of local part of pseudopotential  |
 | and potential given by atomic charge, they will cancel out beyond  |
 | a certain radius cutoff, because the Z/r character.                |
 |                                                                    |
 <<<<<<<<<<<<<<<<<<<<<<<<<<<<<<<<<<<<<<<<<<<<<<<<<<<<<<<<<<<<<<<<<<<<<<





 SETUP ONE DIMENSIONAL ORBITALS/POTENTIAL
                        delta k  (1/Bohr) = 0.01
                        delta r    (Bohr) = 0.01
                        dr_uniform (Bohr) = 0.001
                        rmax       (Bohr) = 30
                                    kmesh = 779
      ORBITAL  L  N      nr      dr    RCUT  CHECK_UNIT    NEW_UNIT
            1  0  0    1101    0.01      11           1           1
            2  0  1    1101    0.01      11           1           1
            3  0  2    1101    0.01      11           1           1
            4  0  3    1101    0.01      11           1           1
            5  1  0    1101    0.01      11           1           1
            6  1  1    1101    0.01      11           1           1
            7  2  0    1101    0.01      11           1           1
      ORBITAL  L  N      nr      dr    RCUT  CHECK_UNIT    NEW_UNIT
            1  0  0     901    0.01       9           1           1
            2  0  1     901    0.01       9           1           1
            3  1  0     901    0.01       9           1           1
            4  1  1     901    0.01       9           1           1
            5  2  0     901    0.01       9           1           1
            6  2  1     901    0.01       9           1           1
      ORBITAL  L  N      nr      dr    RCUT  CHECK_UNIT    NEW_UNIT
            1  0  0     801    0.01       8           1           1
            2  0  1     801    0.01       8           1           1
            3  1  0     801    0.01       8           1           1
            4  1  1     801    0.01       8           1           1
            5  2  0     801    0.01       8           1           1
            6  2  1     801    0.01       8           1           1
   DESCRIPTOR  L  N      nr      dr    RCUT  CHECK_UNIT    NEW_UNIT
            1  0  0     505    0.01    5.04        6.33           1
            2  0  1     505    0.01    5.04        1.58           1
            3  0  2     505    0.01    5.04       0.704           1
            4  0  3     505    0.01    5.04       0.396           1
            5  0  4     505    0.01    5.04       0.253           1
            6  0  5     505    0.01    5.04       0.176           1
            7  0  6     505    0.01    5.04       0.129           1
            8  0  7     505    0.01    5.04       0.099           1
            9  0  8     505    0.01    5.04      0.0782           1
           10  0  9     505    0.01    5.04      0.0633           1
           11  0 10     505    0.01    5.04      0.0524           1
           12  0 11     505    0.01    5.04       0.044           1
           13  0 12     505    0.01    5.04      0.0375           1
           14  0 13     505    0.01    5.04      0.0323           1
           15  0 14     505    0.01    5.04      0.0282           1
           16  1  0     505    0.01    5.04        2.95           1
           17  1  1     505    0.01    5.04        1.03           1
           18  1  2     505    0.01    5.04       0.521           1
           19  1  3     505    0.01    5.04       0.314           1
           20  1  4     505    0.01    5.04        0.21           1
           21  1  5     505    0.01    5.04        0.15           1
           22  1  6     505    0.01    5.04       0.113           1
           23  1  7     505    0.01    5.04      0.0878           1
           24  1  8     505    0.01    5.04      0.0703           1
           25  1  9     505    0.01    5.04      0.0575           1
           26  1 10     505    0.01    5.04      0.0479           1
           27  1 11     505    0.01    5.04      0.0406           1
           28  1 12     505    0.01    5.04      0.0348           1
           29  1 13     505    0.01    5.04      0.0302           1
           30  1 14     505    0.01    5.04      0.0264           1
           31  2  0     505    0.01    5.04        1.71           1
           32  2  1     505    0.01    5.04       0.728           1
           33  2  2     505    0.01    5.04       0.403           1
           34  2  3     505    0.01    5.04       0.256           1
           35  2  4     505    0.01    5.04       0.177           1
           36  2  5     505    0.01    5.04        0.13           1
           37  2  6     505    0.01    5.04      0.0994           1
           38  2  7     505    0.01    5.04      0.0785           1
           39  2  8     505    0.01    5.04      0.0635           1
           40  2  9     505    0.01    5.04      0.0525           1
           41  2 10     505    0.01    5.04      0.0441           1
           42  2 11     505    0.01    5.04      0.0376           1
           43  2 12     505    0.01    5.04      0.0324           1
           44  2 13     505    0.01    5.04      0.0282           1
           45  2 14     505    0.01    5.04      0.0248           1
 max number of nonlocal projetors among all species is 8

 SETUP THE TWO-CENTER INTEGRATION TABLES

 SETUP THE DIVISION OF H/S MATRIX
 divide the H&S matrix using 2D block algorithms.
                                     nb2d = 1
                  trace_loc_row dimension = 87
                  trace_loc_col dimension = 87
                                     nloc = 484
 Initialize the descriptor index for DeePKS (lcao line)
 lmax of descriptor = 2
 nmax of descriptor= 15
 total basis (all atoms) for descriptor= 
 Type 1 number_of_atoms 1
 Type 2 number_of_atoms 1
 Type 3 number_of_atoms 3
 descriptors_per_atom 135
 total_descriptors 675




 >>>>>>>>>>>>>>>>>>>>>>>>>>>>>>>>>>>>>>>>>>>>>>>>>>>>>>>>>>>>>>>>>>>>>>
 |                                                                    |
 | Setup plane waves:                                                 |
 | Use the energy cutoff and the lattice vectors to generate the      |
 | dimensions of FFT grid. The number of FFT grid on each processor   |
 | is 'nrxx'. The number of plane wave basis in reciprocal space is   |
 | different for charege/potential and wave functions. We also set    |
 | the 'sticks' for the parallel of FFT.                              |
 |                                                                    |
 <<<<<<<<<<<<<<<<<<<<<<<<<<<<<<<<<<<<<<<<<<<<<<<<<<<<<<<<<<<<<<<<<<<<<<





 SETUP THE PLANE WAVE BASIS
     energy cutoff for wavefunc (unit:Ry) = 60
            [fft grid for wave functions] = 60, 60, 60
          [fft grid for charge/potential] = 60, 60, 60
                      [fft grid division] = 2, 2, 2
      [big fft grid for charge/potential] = 30, 30, 30
                                     nbxx = 1800
                                     nrxx = 14400

 SETUP PLANE WAVES FOR CHARGE/POTENTIAL
                    number of plane waves = 111875
                         number of sticks = 2801

 SETUP PLANE WAVES FOR WAVE FUNCTIONS
                    number of plane waves = 17845
                         number of sticks = 829

 PARALLEL PW FOR CHARGE/POTENTIAL
     PROC   COLUMNS(POT)             PW
        1            183           7171
        2            183           7171
        3            183           7171
        4            183           7171
        5            183           7171
        6            182           7168
        7            182           7168
        8            182           7168
        9            182           7168
       10            184           7170
       11            184           7170
       12            184           7170
       13            183           7169
       14            183           7169
       15            120           5750
       16            120           5750
 --------------- sum -------------------
       16           2801         111875

 PARALLEL PW FOR WAVE FUNCTIONS
     PROC     COLUMNS(W)             PW
        1             51           1111
        2             51           1111
        3             52           1114
        4             52           1116
        5             52           1112
        6             52           1118
        7             51           1117
        8             52           1114
        9             53           1115
       10             53           1111
       11             52           1112
       12             51           1119
       13             52           1114
       14             53           1123
       15             52           1116
       16             50           1122
 --------------- sum -------------------
       16            829          17845

 SETUP COORDINATES OF PLANE WAVES
              number of total plane waves = 111875

 SETUP COORDINATES OF PLANE WAVES
                            number of |g| = 678
                                  max |g| = 21.7
                                  min |g| = 0
 DONE : INIT PLANEWAVE Time : 20.6 (SEC)

 DONE : INIT CHARGE Time : 20.6 (SEC)

 DONE : INIT POTENTIAL Time : 20.6 (SEC)

                                start_pot = atomic

 -------------------------------------------
 SELF-CONSISTENT
 -------------------------------------------




 >>>>>>>>>>>>>>>>>>>>>>>>>>>>>>>>>>>>>>>>>>>>>>>>>>>>>>>>>>>>>>>>>>>>>>
 |                                                                    |
 | Search adjacent atoms:                                             |
 | Set the adjacent atoms for each atom and set the periodic boundary |
 | condition for the atoms on real space FFT grid. For k-dependent    |
 | algorithm, we also need to set the sparse H and S matrix element   |
 | for each atom.                                                     |
 |                                                                    |
 <<<<<<<<<<<<<<<<<<<<<<<<<<<<<<<<<<<<<<<<<<<<<<<<<<<<<<<<<<<<<<<<<<<<<<





 SETUP SEARCHING RADIUS FOR PROGRAM TO SEARCH ADJACENT ATOMS
                  longest orb rcut (Bohr) = 11
   longest nonlocal projector rcut (Bohr) = 3.68
              searching radius is (Bohr)) = 29.4
         searching radius unit is (Bohr)) = 1.89

 SETUP EXTENDED REAL SPACE GRID FOR GRID INTEGRATION
                        [real space grid] = 60, 60, 60
               [big cell numbers in grid] = 30, 30, 30
           [meshcell numbers in big cell] = 2, 2, 2
                      [extended fft grid] = 28, 28, 28
              [dimension of extened grid] = 87, 87, 87
                            UnitCellTotal = 27
              Atom number in sub-FFT-grid = 5
    Local orbitals number in sub-FFT-grid = 87
                                      nnr = 9740
                                     nnrg = 92583

 SETUP ARRAY FOR EXTRA WAVE FUNCTIONS
                                     daug = 0
                                nnrg_last = 0
                                 nnrg_now = 92583

 LCAO ALGORITHM ------------- ELEC =    1 --------------------------------
 Memory of pvpR : 0.706 MB

 Density error is 0.0445705373603

       Energy                       Rydberg                            eV
   E_KohnSham                -760.384700288                -10345.5645959
     E_Harris                 -760.52639807                -10347.4924932
      E_Fermi               +0.240183656685                +3.26786629739

 LCAO ALGORITHM ------------- ELEC =    2 --------------------------------
 Memory of pvpR : 0.706352233887 MB

 Density error is 0.0194099840392

       Energy                       Rydberg                            eV
   E_KohnSham                -758.987157896                -10326.5500562
     E_Harris                -759.011008841                 -10326.874565
      E_Fermi               +0.260365848645                +3.54245910617

 LCAO ALGORITHM ------------- ELEC =    3 --------------------------------
 Memory of pvpR : 0.706352233887 MB

 Density error is 0.00740282156746

       Energy                       Rydberg                            eV
   E_KohnSham                -758.992594241                -10326.6240215
     E_Harris                -758.995606427                -10326.6650044
      E_Fermi               +0.265303373142                +3.60963757335

 LCAO ALGORITHM ------------- ELEC =    4 --------------------------------
 Memory of pvpR : 0.706352233887 MB

 Density error is 0.00266076791185

       Energy                       Rydberg                            eV
   E_KohnSham                -758.995561788                 -10326.664397
     E_Harris                 -758.99602659                 -10326.670721
      E_Fermi                +0.26595871217                +3.61855391825

 LCAO ALGORITHM ------------- ELEC =    5 --------------------------------
 Memory of pvpR : 0.706352233887 MB

 Density error is 0.000875559644558

       Energy                       Rydberg                            eV
   E_KohnSham                -758.993698493                -10326.6390456
     E_Harris                -758.993699747                -10326.6390627
      E_Fermi               +0.267062990082                +3.63357839003

 LCAO ALGORITHM ------------- ELEC =    6 --------------------------------
 Memory of pvpR : 0.706352233887 MB

 Density error is 0.000194549202431

       Energy                       Rydberg                            eV
   E_KohnSham                -758.994068449                -10326.6440791
     E_Harris                -758.994069085                -10326.6440878
      E_Fermi               +0.266736669741                +3.62913857403

 LCAO ALGORITHM ------------- ELEC =    7 --------------------------------
 Memory of pvpR : 0.706352233887 MB

 Density error is 2.29623278617e-05

       Energy                       Rydberg                            eV
   E_KohnSham                -758.993937861                -10326.6423024
     E_Harris                -758.993937884                -10326.6423027
      E_Fermi               +0.266813908159                +3.63018945661

 LCAO ALGORITHM ------------- ELEC =    8 --------------------------------
 Memory of pvpR : 0.706352233887 MB

 Density error is 8.48458326798e-06

       Energy                       Rydberg                            eV
   E_KohnSham                -758.993943939                -10326.6423851
     E_Harris                -758.993943943                -10326.6423851
      E_Fermi               +0.266824297788                +3.63033081477

 LCAO ALGORITHM ------------- ELEC =    9 --------------------------------
 Memory of pvpR : 0.706352233887 MB

 Density error is 2.29885149537e-06

       Energy                       Rydberg                            eV
   E_KohnSham                -758.993942194                -10326.6423613
     E_Harris                -758.993942194                -10326.6423613
      E_Fermi               +0.266820889351                 +3.6302844406

 LCAO ALGORITHM ------------- ELEC =   10 --------------------------------
 Memory of pvpR : 0.706352233887 MB

 Density error is 4.32463428899e-07

       Energy                       Rydberg                            eV
   E_KohnSham                -758.993944124                -10326.6423876
     E_Harris                -758.993944124                -10326.6423876
       E_band                  -100.7969007                -1371.41219026
   E_one_elec                -516.625133715                -7029.04554853
    E_Hartree                +260.340819914                +3542.11857282
         E_xc                -80.6649747016                -1097.50328497
      E_Ewald                -422.805856631                -5752.56879796
      E_demet                            +0                            +0
      E_descf                            +0                            +0
     E_efield                            +0                            +0
        E_exx                            +0                            +0
     E_DeePKS                +2.31288480318                +31.4684121408
      E_Fermi                +0.26681934305                 +3.6302634021

 charge density convergence is achieved
 final etot is -10326.6423876 eV

 STATE ENERGY(eV) AND OCCUPATIONS    NSPIN == 1
 1/64 kpoint (Cartesian) = 0 0 0 (879 pws)
       1       -39.1129      0.0312500
       2       -39.0857      0.0312500
       3       -39.0705      0.0312500
       4       -39.0231      0.0312500
       5       -39.0222      0.0312500
       6       -39.0176      0.0312500
       7       -39.0166      0.0312500
       8       -39.0037      0.0312500
       9       -39.0000      0.0312500
      10       -38.8212      0.0312500
      11       -38.8182      0.0312500
      12       -38.8168      0.0312500
      13       -38.8140      0.0312500
      14       -38.8043      0.0312500
      15       -38.8013      0.0312500
      16       -17.7786      0.0312500
      17       -12.3814      0.0312500
      18       -12.3364      0.0312500
      19       -12.0333      0.0312500
      20       -12.0325      0.0312500
      21       -12.0307      0.0312500
      22       -8.47192      0.0312500
      23       -7.63303      0.0312500
      24       -7.61334      0.0312500
      25       -5.02302      0.0312500
      26       -5.02279      0.0312500
      27       -5.02156      0.0312500
      28       -2.82912      0.0312500
      29      0.0479133      0.0312500
      30      0.0598928      0.0312500
      31      0.0900089      0.0312500
      32        2.77186      0.0312500
      33        2.77735      0.0312500
      34        2.78860      0.0312500
      35        2.83811      0.0312500
      36        2.84723      0.0312500
      37        2.84950      0.0312500
      38        7.16302        0.00000
      39        8.79574        0.00000
      40        8.91938        0.00000
      41        8.93679        0.00000
      42        9.22962        0.00000
      43        9.23560        0.00000
      44        10.1106        0.00000
      45        10.1339        0.00000
      46        10.1389        0.00000
      47        14.2204        0.00000

 2/64 kpoint (Cartesian) = 0.0389764 0.00000 0.00000 (890 pws)
       1       -39.1156      0.0312500
       2       -39.0917      0.0312500
       3       -39.0713      0.0312500
       4       -39.0236      0.0312500
       5       -39.0229      0.0312500
       6       -39.0176      0.0312500
       7       -39.0166      0.0312500
       8       -39.0037      0.0312500
       9       -39.0000      0.0312500
      10       -38.8212      0.0312500
      11       -38.8181      0.0312500
      12       -38.8168      0.0312500
      13       -38.8140      0.0312500
      14       -38.8043      0.0312500
      15       -38.8013      0.0312500
      16       -17.7761      0.0312500
      17       -12.4105      0.0312500
      18       -12.3396      0.0312500
      19       -12.0377      0.0312500
      20       -12.0365      0.0312500
      21       -12.0332      0.0312500
      22       -8.40900      0.0312500
      23       -7.79005      0.0312500
      24       -7.61609      0.0312500
      25       -5.01871      0.0312500
      26       -5.01857      0.0312500
      27       -5.01444      0.0312500
      28       -3.21591      0.0312500
      29       0.111747      0.0312500
      30       0.131079      0.0312500
      31        1.08708      0.0312500
      32        2.69992      0.0312500
      33        2.72331      0.0312500
      34        2.74517      0.0312500
      35        2.79985      0.0312500
      36        2.81732      0.0312500
      37        2.82521      0.0312500
      38        7.47944        0.00000
      39        7.76341        0.00000
      40        8.71035        0.00000
      41        8.84606        0.00000
      42        9.39544        0.00000
      43        9.53260        0.00000
      44        10.1931        0.00000
      45        10.3559        0.00000
      46        10.3683        0.00000
      47        12.2411        0.00000

 3/64 kpoint (Cartesian) = 0.0779527 0.00000 0.00000 (890 pws)
       1       -39.1200      0.0312500
       2       -39.0964      0.0312500
       3       -39.0716      0.0312500
       4       -39.0242      0.0312500
       5       -39.0236      0.0312500
       6       -39.0176      0.0312500
       7       -39.0166      0.0312500
       8       -39.0037      0.0312500
       9       -39.0000      0.0312500
      10       -38.8212      0.0312500
      11       -38.8181      0.0312500
      12       -38.8168      0.0312500
      13       -38.8140      0.0312500
      14       -38.8043      0.0312500
      15       -38.8013      0.0312500
      16       -17.7751      0.0312500
      17       -12.4415      0.0312500
      18       -12.3410      0.0312500
      19       -12.0429      0.0312500
      20       -12.0423      0.0312500
      21       -12.0333      0.0312500
      22       -8.28675      0.0312500
      23       -8.00855      0.0312500
      24       -7.61601      0.0312500
      25       -5.01453      0.0312500
      26       -5.01438      0.0312500
      27       -5.00715      0.0312500
      28       -3.47929      0.0312500
      29       0.186794      0.0312500
      30       0.206571      0.0312500
      31        2.01691      0.0312500
      32        2.63648      0.0312500
      33        2.65365      0.0312500
      34        2.70189      0.0312500
      35        2.79610      0.0312500
      36        2.80462      0.0312500
      37        3.01684      0.0312500
      38        6.05784        0.00000
      39        8.56949        0.00000
      40        8.63063        0.00000
      41        8.73446        0.00000
      42        9.48145        0.00000
      43        9.87975        0.00000
      44        10.2637        0.00000
      45        10.6593        0.00000
      46        10.6670        0.00000
      47        10.7086        0.00000

 4/64 kpoint (Cartesian) = 0.116929 0.00000 0.00000 (879 pws)
       1       -39.1156      0.0312500
       2       -39.0917      0.0312500
       3       -39.0713      0.0312500
       4       -39.0236      0.0312500
       5       -39.0229      0.0312500
       6       -39.0176      0.0312500
       7       -39.0166      0.0312500
       8       -39.0037      0.0312500
       9       -39.0000      0.0312500
      10       -38.8212      0.0312500
      11       -38.8181      0.0312500
      12       -38.8168      0.0312500
      13       -38.8140      0.0312500
      14       -38.8043      0.0312500
      15       -38.8013      0.0312500
      16       -17.7761      0.0312500
      17       -12.4105      0.0312500
      18       -12.3396      0.0312500
      19       -12.0377      0.0312500
      20       -12.0365      0.0312500
      21       -12.0332      0.0312500
      22       -8.40900      0.0312500
      23       -7.79005      0.0312500
      24       -7.61609      0.0312500
      25       -5.01871      0.0312500
      26       -5.01857      0.0312500
      27       -5.01444      0.0312500
      28       -3.21591      0.0312500
      29       0.111747      0.0312500
      30       0.131079      0.0312500
      31        1.08708      0.0312500
      32        2.69992      0.0312500
      33        2.72331      0.0312500
      34        2.74517      0.0312500
      35        2.79985      0.0312500
      36        2.81732      0.0312500
      37        2.82521      0.0312500
      38        7.47944        0.00000
      39        7.76341        0.00000
      40        8.71035        0.00000
      41        8.84606        0.00000
      42        9.39544        0.00000
      43        9.53260        0.00000
      44        10.1931        0.00000
      45        10.3559        0.00000
      46        10.3683        0.00000
      47        12.2411        0.00000

 5/64 kpoint (Cartesian) = 0.00000 0.0389764 0.00000 (886 pws)
       1       -39.1114      0.0312500
       2       -39.0859      0.0312500
       3       -39.0818      0.0312500
       4       -39.0231      0.0312500
       5       -39.0222      0.0312500
       6       -39.0176      0.0312500
       7       -39.0166      0.0312500
       8       -39.0040      0.0312500
       9       -39.0007      0.0312500
      10       -38.8213      0.0312500
      11       -38.8182      0.0312500
      12       -38.8168      0.0312500
      13       -38.8140      0.0312500
      14       -38.8043      0.0312500
      15       -38.8013      0.0312500
      16       -17.7751      0.0312500
      17       -12.3833      0.0312500
      18       -12.3681      0.0312500
      19       -12.0371      0.0312500
      20       -12.0365      0.0312500
      21       -12.0324      0.0312500
      22       -8.40705      0.0312500
      23       -7.78053      0.0312500
      24       -7.63251      0.0312500
      25       -5.01887      0.0312500
      26       -5.01751      0.0312500
      27       -5.01523      0.0312500
      28       -3.20685      0.0312500
      29      0.0902984      0.0312500
      30       0.138159      0.0312500
      31        1.09288      0.0312500
      32        2.65447      0.0312500
      33        2.70785      0.0312500
      34        2.77474      0.0312500
      35        2.79130      0.0312500
      36        2.82536      0.0312500
      37        2.86216      0.0312500
      38        7.42969        0.00000
      39        7.73882        0.00000
      40        8.83339        0.00000
      41        8.87306        0.00000
      42        9.38853        0.00000
      43        9.53099        0.00000
      44        10.1982        0.00000
      45        10.3502        0.00000
      46        10.3650        0.00000
      47        12.2568        0.00000

 6/64 kpoint (Cartesian) = 0.0389764 0.0389764 0.00000 (887 pws)
       1       -39.1147      0.0312500
       2       -39.0921      0.0312500
       3       -39.0819      0.0312500
       4       -39.0236      0.0312500
       5       -39.0229      0.0312500
       6       -39.0176      0.0312500
       7       -39.0166      0.0312500
       8       -39.0040      0.0312500
       9       -39.0007      0.0312500
      10       -38.8213      0.0312500
      11       -38.8181      0.0312500
      12       -38.8168      0.0312500
      13       -38.8140      0.0312500
      14       -38.8043      0.0312500
      15       -38.8013      0.0312500
      16       -17.7745      0.0312500
      17       -12.4153      0.0312500
      18       -12.3682      0.0312500
      19       -12.0424      0.0312500
      20       -12.0376      0.0312500
      21       -12.0371      0.0312500
      22       -8.34731      0.0312500
      23       -7.83349      0.0312500
      24       -7.71672      0.0312500
      25       -5.02034      0.0312500
      26       -5.01473      0.0312500
      27       -5.01169      0.0312500
      28       -3.58072      0.0312500
      29       0.153948      0.0312500
      30       0.994111      0.0312500
      31        1.30486      0.0312500
      32        2.40684      0.0312500
      33        2.65714      0.0312500
      34        2.71302      0.0312500
      35        2.79465      0.0312500
      36        2.86021      0.0312500
      37        3.00925      0.0312500
      38        7.33866        0.00000
      39        7.41946        0.00000
      40        8.17422        0.00000
      41        8.78361        0.00000
      42        9.66337        0.00000
      43        9.70607        0.00000
      44        10.3545        0.00000
      45        10.4083        0.00000
      46        10.4532        0.00000
      47        11.7084        0.00000

 7/64 kpoint (Cartesian) = 0.0779527 0.0389764 0.00000 (882 pws)
       1       -39.1198      0.0312500
       2       -39.0964      0.0312500
       3       -39.0819      0.0312500
       4       -39.0242      0.0312500
       5       -39.0236      0.0312500
       6       -39.0176      0.0312500
       7       -39.0166      0.0312500
       8       -39.0040      0.0312500
       9       -39.0007      0.0312500
      10       -38.8213      0.0312500
      11       -38.8181      0.0312500
      12       -38.8168      0.0312500
      13       -38.8140      0.0312500
      14       -38.8043      0.0312500
      15       -38.8013      0.0312500
      16       -17.7741      0.0312500
      17       -12.4474      0.0312500
      18       -12.3683      0.0312500
      19       -12.0482      0.0312500
      20       -12.0428      0.0312500
      21       -12.0371      0.0312500
      22       -8.22841      0.0312500
      23       -8.00729      0.0312500
      24       -7.74025      0.0312500
      25       -5.01756      0.0312500
      26       -5.01346      0.0312500
      27       -5.01083      0.0312500
      28       -3.84772      0.0312500
      29       0.231502      0.0312500
      30        1.22517      0.0312500
      31        1.99111      0.0312500
      32        2.41106      0.0312500
      33        2.62632      0.0312500
      34        2.66365      0.0312500
      35        2.80295      0.0312500
      36        3.04062      0.0312500
      37        3.09898      0.0312500
      38        5.93067        0.00000
      39        7.25372        0.00000
      40        8.66108        0.00000
      41        8.87268        0.00000
      42        9.67497        0.00000
      43        10.0743        0.00000
      44        10.4174        0.00000
      45        10.5058        0.00000
      46        10.5690        0.00000
      47        10.7343        0.00000

 8/64 kpoint (Cartesian) = 0.116929 0.0389764 0.00000 (877 pws)
       1       -39.1147      0.0312500
       2       -39.0921      0.0312500
       3       -39.0819      0.0312500
       4       -39.0236      0.0312500
       5       -39.0229      0.0312500
       6       -39.0176      0.0312500
       7       -39.0166      0.0312500
       8       -39.0040      0.0312500
       9       -39.0007      0.0312500
      10       -38.8213      0.0312500
      11       -38.8181      0.0312500
      12       -38.8168      0.0312500
      13       -38.8140      0.0312500
      14       -38.8043      0.0312500
      15       -38.8013      0.0312500
      16       -17.7745      0.0312500
      17       -12.4153      0.0312500
      18       -12.3682      0.0312500
      19       -12.0424      0.0312500
      20       -12.0376      0.0312500
      21       -12.0370      0.0312500
      22       -8.34744      0.0312500
      23       -7.83257      0.0312500
      24       -7.71750      0.0312500
      25       -5.02012      0.0312500
      26       -5.01477      0.0312500
      27       -5.01186      0.0312500
      28       -3.58091      0.0312500
      29       0.153942      0.0312500
      30        1.00090      0.0312500
      31        1.29590      0.0312500
      32        2.41226      0.0312500
      33        2.65785      0.0312500
      34        2.71448      0.0312500
      35        2.79256      0.0312500
      36        2.85777      0.0312500
      37        3.00852      0.0312500
      38        7.34250        0.00000
      39        7.41646        0.00000
      40        8.17221        0.00000
      41        8.78437        0.00000
      42        9.65250        0.00000
      43        9.71440        0.00000
      44        10.3546        0.00000
      45        10.4065        0.00000
      46        10.4531        0.00000
      47        11.7106        0.00000

 9/64 kpoint (Cartesian) = 0.00000 0.0779527 0.00000 (882 pws)
       1       -39.1075      0.0312500
       2       -39.0959      0.0312500
       3       -39.0856      0.0312500
       4       -39.0231      0.0312500
       5       -39.0222      0.0312500
       6       -39.0176      0.0312500
       7       -39.0166      0.0312500
       8       -39.0043      0.0312500
       9       -39.0014      0.0312500
      10       -38.8213      0.0312500
      11       -38.8181      0.0312500
      12       -38.8168      0.0312500
      13       -38.8140      0.0312500
      14       -38.8043      0.0312500
      15       -38.8013      0.0312500
      16       -17.7729      0.0312500
      17       -12.4055      0.0312500
      18       -12.3793      0.0312500
      19       -12.0421      0.0312500
      20       -12.0413      0.0312500
      21       -12.0325      0.0312500
      22       -8.27728      0.0312500
      23       -8.01138      0.0312500
      24       -7.63225      0.0312500
      25       -5.01473      0.0312500
      26       -5.01329      0.0312500
      27       -5.00783      0.0312500
      28       -3.46422      0.0312500
      29       0.164781      0.0312500
      30       0.212307      0.0312500
      31        2.00780      0.0312500
      32        2.56964      0.0312500
      33        2.66337      0.0312500
      34        2.76037      0.0312500
      35        2.78541      0.0312500
      36        2.79965      0.0312500
      37        3.05505      0.0312500
      38        6.01736        0.00000
      39        8.55871        0.00000
      40        8.74494        0.00000
      41        8.76939        0.00000
      42        9.48028        0.00000
      43        9.87638        0.00000
      44        10.2729        0.00000
      45        10.6526        0.00000
      46        10.6652        0.00000
      47        10.7162        0.00000

 10/64 kpoint (Cartesian) = 0.0389764 0.0779527 0.00000 (881 pws)
       1       -39.1126      0.0312500
       2       -39.0960      0.0312500
       3       -39.0900      0.0312500
       4       -39.0236      0.0312500
       5       -39.0229      0.0312500
       6       -39.0176      0.0312500
       7       -39.0166      0.0312500
       8       -39.0043      0.0312500
       9       -39.0014      0.0312500
      10       -38.8213      0.0312500
      11       -38.8181      0.0312500
      12       -38.8168      0.0312500
      13       -38.8140      0.0312500
      14       -38.8043      0.0312500
      15       -38.8013      0.0312500
      16       -17.7730      0.0312500
      17       -12.4285      0.0312500
      18       -12.3882      0.0312500
      19       -12.0480      0.0312500
      20       -12.0413      0.0312500
      21       -12.0376      0.0312500
      22       -8.22088      0.0312500
      23       -8.01029      0.0312500
      24       -7.74955      0.0312500
      25       -5.01711      0.0312500
      26       -5.01393      0.0312500
      27       -5.01071      0.0312500
      28       -3.84144      0.0312500
      29       0.231679      0.0312500
      30        1.21441      0.0312500
      31        1.97406      0.0312500
      32        2.42585      0.0312500
      33        2.61966      0.0312500
      34        2.69388      0.0312500
      35        2.76695      0.0312500
      36        3.05593      0.0312500
      37        3.11111      0.0312500
      38        5.88721        0.00000
      39        7.32734        0.00000
      40        8.66916        0.00000
      41        8.86522        0.00000
      42        9.67198        0.00000
      43        10.0574        0.00000
      44        10.4222        0.00000
      45        10.5434        0.00000
      46        10.6000        0.00000
      47        10.6746        0.00000

 11/64 kpoint (Cartesian) = 0.0779527 0.0779527 0.00000 (883 pws)
       1       -39.1195      0.0312500
       2       -39.0961      0.0312500
       3       -39.0925      0.0312500
       4       -39.0242      0.0312500
       5       -39.0235      0.0312500
       6       -39.0176      0.0312500
       7       -39.0166      0.0312500
       8       -39.0043      0.0312500
       9       -39.0013      0.0312500
      10       -38.8213      0.0312500
      11       -38.8181      0.0312500
      12       -38.8168      0.0312500
      13       -38.8140      0.0312500
      14       -38.8043      0.0312500
      15       -38.8013      0.0312500
      16       -17.7732      0.0312500
      17       -12.4583      0.0312500
      18       -12.3904      0.0312500
      19       -12.0539      0.0312500
      20       -12.0429      0.0312500
      21       -12.0414      0.0312500
      22       -8.10491      0.0312500
      23       -8.00987      0.0312500
      24       -7.92791      0.0312500
      25       -5.01980      0.0312500
      26       -5.01927      0.0312500
      27       -5.00769      0.0312500
      28       -4.11905      0.0312500
      29       0.313153      0.0312500
      30        1.92379      0.0312500
      31        2.34231      0.0312500
      32        2.38091      0.0312500
      33        2.60541      0.0312500
      34        2.61870      0.0312500
      35        2.65588      0.0312500
      36        3.24730      0.0312500
      37        3.37426      0.0312500
      38        5.74187        0.00000
      39        5.78913        0.00000
      40        8.57353        0.00000
      41        9.27437        0.00000
      42        9.73478        0.00000
      43        10.2309        0.00000
      44        10.5084        0.00000
      45        10.5670        0.00000
      46        10.7617        0.00000
      47        10.8292        0.00000

 12/64 kpoint (Cartesian) = 0.116929 0.0779527 0.00000 (880 pws)
       1       -39.1126      0.0312500
       2       -39.0960      0.0312500
       3       -39.0900      0.0312500
       4       -39.0236      0.0312500
       5       -39.0229      0.0312500
       6       -39.0176      0.0312500
       7       -39.0166      0.0312500
       8       -39.0043      0.0312500
       9       -39.0014      0.0312500
      10       -38.8213      0.0312500
      11       -38.8181      0.0312500
      12       -38.8168      0.0312500
      13       -38.8140      0.0312500
      14       -38.8043      0.0312500
      15       -38.8013      0.0312500
      16       -17.7730      0.0312500
      17       -12.4285      0.0312500
      18       -12.3882      0.0312500
      19       -12.0480      0.0312500
      20       -12.0413      0.0312500
      21       -12.0376      0.0312500
      22       -8.22088      0.0312500
      23       -8.01029      0.0312500
      24       -7.74955      0.0312500
      25       -5.01711      0.0312500
      26       -5.01393      0.0312500
      27       -5.01071      0.0312500
      28       -3.84144      0.0312500
      29       0.231679      0.0312500
      30        1.21441      0.0312500
      31        1.97406      0.0312500
      32        2.42585      0.0312500
      33        2.61966      0.0312500
      34        2.69388      0.0312500
      35        2.76695      0.0312500
      36        3.05593      0.0312500
      37        3.11111      0.0312500
      38        5.88721        0.00000
      39        7.32734        0.00000
      40        8.66916        0.00000
      41        8.86522        0.00000
      42        9.67198        0.00000
      43        10.0574        0.00000
      44        10.4222        0.00000
      45        10.5434        0.00000
      46        10.6000        0.00000
      47        10.6746        0.00000

 13/64 kpoint (Cartesian) = 0.00000 0.116929 0.00000 (890 pws)
       1       -39.1114      0.0312500
       2       -39.0859      0.0312500
       3       -39.0818      0.0312500
       4       -39.0231      0.0312500
       5       -39.0222      0.0312500
       6       -39.0176      0.0312500
       7       -39.0166      0.0312500
       8       -39.0040      0.0312500
       9       -39.0007      0.0312500
      10       -38.8213      0.0312500
      11       -38.8182      0.0312500
      12       -38.8168      0.0312500
      13       -38.8140      0.0312500
      14       -38.8043      0.0312500
      15       -38.8013      0.0312500
      16       -17.7751      0.0312500
      17       -12.3833      0.0312500
      18       -12.3681      0.0312500
      19       -12.0371      0.0312500
      20       -12.0365      0.0312500
      21       -12.0324      0.0312500
      22       -8.40705      0.0312500
      23       -7.78053      0.0312500
      24       -7.63251      0.0312500
      25       -5.01887      0.0312500
      26       -5.01751      0.0312500
      27       -5.01523      0.0312500
      28       -3.20685      0.0312500
      29      0.0902984      0.0312500
      30       0.138159      0.0312500
      31        1.09288      0.0312500
      32        2.65447      0.0312500
      33        2.70785      0.0312500
      34        2.77474      0.0312500
      35        2.79130      0.0312500
      36        2.82536      0.0312500
      37        2.86216      0.0312500
      38        7.42969        0.00000
      39        7.73882        0.00000
      40        8.83339        0.00000
      41        8.87306        0.00000
      42        9.38853        0.00000
      43        9.53099        0.00000
      44        10.1982        0.00000
      45        10.3502        0.00000
      46        10.3650        0.00000
      47        12.2568        0.00000

 14/64 kpoint (Cartesian) = 0.0389764 0.116929 0.00000 (890 pws)
       1       -39.1147      0.0312500
       2       -39.0921      0.0312500
       3       -39.0819      0.0312500
       4       -39.0236      0.0312500
       5       -39.0229      0.0312500
       6       -39.0176      0.0312500
       7       -39.0166      0.0312500
       8       -39.0040      0.0312500
       9       -39.0007      0.0312500
      10       -38.8213      0.0312500
      11       -38.8181      0.0312500
      12       -38.8168      0.0312500
      13       -38.8140      0.0312500
      14       -38.8043      0.0312500
      15       -38.8013      0.0312500
      16       -17.7745      0.0312500
      17       -12.4153      0.0312500
      18       -12.3682      0.0312500
      19       -12.0424      0.0312500
      20       -12.0376      0.0312500
      21       -12.0370      0.0312500
      22       -8.34744      0.0312500
      23       -7.83257      0.0312500
      24       -7.71750      0.0312500
      25       -5.02012      0.0312500
      26       -5.01477      0.0312500
      27       -5.01186      0.0312500
      28       -3.58091      0.0312500
      29       0.153942      0.0312500
      30        1.00090      0.0312500
      31        1.29590      0.0312500
      32        2.41226      0.0312500
      33        2.65785      0.0312500
      34        2.71448      0.0312500
      35        2.79256      0.0312500
      36        2.85777      0.0312500
      37        3.00852      0.0312500
      38        7.34250        0.00000
      39        7.41646        0.00000
      40        8.17221        0.00000
      41        8.78437        0.00000
      42        9.65250        0.00000
      43        9.71440        0.00000
      44        10.3546        0.00000
      45        10.4065        0.00000
      46        10.4531        0.00000
      47        11.7106        0.00000

 15/64 kpoint (Cartesian) = 0.0779527 0.116929 0.00000 (891 pws)
       1       -39.1198      0.0312500
       2       -39.0964      0.0312500
       3       -39.0819      0.0312500
       4       -39.0242      0.0312500
       5       -39.0236      0.0312500
       6       -39.0176      0.0312500
       7       -39.0166      0.0312500
       8       -39.0040      0.0312500
       9       -39.0007      0.0312500
      10       -38.8213      0.0312500
      11       -38.8181      0.0312500
      12       -38.8168      0.0312500
      13       -38.8140      0.0312500
      14       -38.8043      0.0312500
      15       -38.8013      0.0312500
      16       -17.7741      0.0312500
      17       -12.4474      0.0312500
      18       -12.3683      0.0312500
      19       -12.0482      0.0312500
      20       -12.0428      0.0312500
      21       -12.0371      0.0312500
      22       -8.22841      0.0312500
      23       -8.00729      0.0312500
      24       -7.74025      0.0312500
      25       -5.01756      0.0312500
      26       -5.01346      0.0312500
      27       -5.01083      0.0312500
      28       -3.84772      0.0312500
      29       0.231502      0.0312500
      30        1.22517      0.0312500
      31        1.99111      0.0312500
      32        2.41106      0.0312500
      33        2.62632      0.0312500
      34        2.66365      0.0312500
      35        2.80295      0.0312500
      36        3.04062      0.0312500
      37        3.09898      0.0312500
      38        5.93067        0.00000
      39        7.25372        0.00000
      40        8.66108        0.00000
      41        8.87268        0.00000
      42        9.67497        0.00000
      43        10.0743        0.00000
      44        10.4174        0.00000
      45        10.5058        0.00000
      46        10.5690        0.00000
      47        10.7343        0.00000

 16/64 kpoint (Cartesian) = 0.116929 0.116929 0.00000 (889 pws)
       1       -39.1147      0.0312500
       2       -39.0921      0.0312500
       3       -39.0819      0.0312500
       4       -39.0236      0.0312500
       5       -39.0229      0.0312500
       6       -39.0176      0.0312500
       7       -39.0166      0.0312500
       8       -39.0040      0.0312500
       9       -39.0007      0.0312500
      10       -38.8213      0.0312500
      11       -38.8181      0.0312500
      12       -38.8168      0.0312500
      13       -38.8140      0.0312500
      14       -38.8043      0.0312500
      15       -38.8013      0.0312500
      16       -17.7745      0.0312500
      17       -12.4153      0.0312500
      18       -12.3682      0.0312500
      19       -12.0424      0.0312500
      20       -12.0376      0.0312500
      21       -12.0371      0.0312500
      22       -8.34731      0.0312500
      23       -7.83349      0.0312500
      24       -7.71672      0.0312500
      25       -5.02034      0.0312500
      26       -5.01473      0.0312500
      27       -5.01169      0.0312500
      28       -3.58072      0.0312500
      29       0.153948      0.0312500
      30       0.994111      0.0312500
      31        1.30486      0.0312500
      32        2.40684      0.0312500
      33        2.65714      0.0312500
      34        2.71302      0.0312500
      35        2.79465      0.0312500
      36        2.86021      0.0312500
      37        3.00925      0.0312500
      38        7.33866        0.00000
      39        7.41946        0.00000
      40        8.17422        0.00000
      41        8.78361        0.00000
      42        9.66337        0.00000
      43        9.70607        0.00000
      44        10.3545        0.00000
      45        10.4083        0.00000
      46        10.4532        0.00000
      47        11.7084        0.00000

 17/64 kpoint (Cartesian) = 0.00000 0.00000 0.0389764 (882 pws)
       1       -39.1132      0.0312500
       2       -39.0946      0.0312500
       3       -39.0717      0.0312500
       4       -39.0231      0.0312500
       5       -39.0222      0.0312500
       6       -39.0183      0.0312500
       7       -39.0173      0.0312500
       8       -39.0037      0.0312500
       9       -39.0000      0.0312500
      10       -38.8213      0.0312500
      11       -38.8181      0.0312500
      12       -38.8168      0.0312500
      13       -38.8140      0.0312500
      14       -38.8043      0.0312500
      15       -38.8013      0.0312500
      16       -17.7761      0.0312500
      17       -12.4083      0.0312500
      18       -12.3443      0.0312500
      19       -12.0392      0.0312500
      20       -12.0382      0.0312500
      21       -12.0307      0.0312500
      22       -8.40474      0.0312500
      23       -7.79714      0.0312500
      24       -7.61830      0.0312500
      25       -5.01864      0.0312500
      26       -5.01797      0.0312500
      27       -5.01490      0.0312500
      28       -3.22140      0.0312500
      29       0.133846      0.0312500
      30       0.144770      0.0312500
      31        1.07949      0.0312500
      32        2.64605      0.0312500
      33        2.71595      0.0312500
      34        2.76033      0.0312500
      35        2.80382      0.0312500
      36        2.81541      0.0312500
      37        2.85592      0.0312500
      38        7.47489        0.00000
      39        7.75815        0.00000
      40        8.71999        0.00000
      41        8.84294        0.00000
      42        9.38846        0.00000
      43        9.53442        0.00000
      44        10.1887        0.00000
      45        10.3662        0.00000
      46        10.3728        0.00000
      47        12.2433        0.00000

 18/64 kpoint (Cartesian) = 0.0389764 0.00000 0.0389764 (882 pws)
       1       -39.1154      0.0312500
       2       -39.1003      0.0312500
       3       -39.0733      0.0312500
       4       -39.0236      0.0312500
       5       -39.0229      0.0312500
       6       -39.0183      0.0312500
       7       -39.0173      0.0312500
       8       -39.0037      0.0312500
       9       -39.0000      0.0312500
      10       -38.8213      0.0312500
      11       -38.8181      0.0312500
      12       -38.8168      0.0312500
      13       -38.8140      0.0312500
      14       -38.8043      0.0312500
      15       -38.8013      0.0312500
      16       -17.7755      0.0312500
      17       -12.4307      0.0312500
      18       -12.3539      0.0312500
      19       -12.0435      0.0312500
      20       -12.0393      0.0312500
      21       -12.0365      0.0312500
      22       -8.34499      0.0312500
      23       -7.84642      0.0312500
      24       -7.70621      0.0312500
      25       -5.02068      0.0312500
      26       -5.01483      0.0312500
      27       -5.01098      0.0312500
      28       -3.59354      0.0312500
      29       0.208297      0.0312500
      30       0.973644      0.0312500
      31        1.30401      0.0312500
      32        2.38976      0.0312500
      33        2.69800      0.0312500
      34        2.74560      0.0312500
      35        2.77167      0.0312500
      36        2.80300      0.0312500
      37        3.01637      0.0312500
      38        7.38681        0.00000
      39        7.43075        0.00000
      40        8.19210        0.00000
      41        8.62628        0.00000
      42        9.67835        0.00000
      43        9.70051        0.00000
      44        10.3589        0.00000
      45        10.4191        0.00000
      46        10.4357        0.00000
      47        11.7240        0.00000
[...]
      46        10.5387        0.00000
      47        10.7386        0.00000

 58/64 kpoint (Cartesian) = 0.0389764 0.0779527 0.116929 (895 pws)
       1       -39.1129      0.0312500
       2       -39.1001      0.0312500
       3       -39.0960      0.0312500
       4       -39.0236      0.0312500
       5       -39.0229      0.0312500
       6       -39.0183      0.0312500
       7       -39.0173      0.0312500
       8       -39.0043      0.0312500
       9       -39.0013      0.0312500
      10       -38.8213      0.0312500
      11       -38.8181      0.0312500
      12       -38.8168      0.0312500
      13       -38.8140      0.0312500
      14       -38.8043      0.0312500
      15       -38.8013      0.0312500
      16       -17.7727      0.0312500
      17       -12.4327      0.0312500
      18       -12.4183      0.0312500
      19       -12.0484      0.0312500
      20       -12.0471      0.0312500
      21       -12.0434      0.0312500
      22       -8.17219      0.0312500
      23       -8.00616      0.0312500
      24       -7.83663      0.0312500
      25       -5.02343      0.0312500
      26       -5.02062      0.0312500
      27       -5.01462      0.0312500
      28       -4.23000      0.0312500
      29        1.13396      0.0312500
      30        1.40169      0.0312500
      31        1.97867      0.0312500
      32        2.21261      0.0312500
      33        2.42065      0.0312500
      34        2.90756      0.0312500
      35        2.98225      0.0312500
      36        3.10081      0.0312500
      37        3.14670      0.0312500
      38        5.73082        0.00000
      39        7.08919        0.00000
      40        7.36423        0.00000
      41        8.84912        0.00000
      42        9.76615        0.00000
      43        10.1501        0.00000
      44        10.1694        0.00000
      45        10.2620        0.00000
      46        10.6480        0.00000
      47        11.2621        0.00000

 59/64 kpoint (Cartesian) = 0.0779527 0.0779527 0.116929 (891 pws)
       1       -39.1194      0.0312500
       2       -39.1031      0.0312500
       3       -39.0960      0.0312500
       4       -39.0242      0.0312500
       5       -39.0235      0.0312500
       6       -39.0183      0.0312500
       7       -39.0173      0.0312500
       8       -39.0043      0.0312500
       9       -39.0013      0.0312500
      10       -38.8213      0.0312500
      11       -38.8181      0.0312500
      12       -38.8168      0.0312500
      13       -38.8140      0.0312500
      14       -38.8043      0.0312500
      15       -38.8013      0.0312500
      16       -17.7729      0.0312500
      17       -12.4643      0.0312500
      18       -12.4185      0.0312500
      19       -12.0540      0.0312500
      20       -12.0488      0.0312500
      21       -12.0475      0.0312500
      22       -8.08501      0.0312500
      23       -8.00297      0.0312500
      24       -7.95947      0.0312500
      25       -5.02714      0.0312500
      26       -5.02682      0.0312500
      27       -5.02092      0.0312500
      28       -4.52292      0.0312500
      29        1.33024      0.0312500
      30        1.97487      0.0312500
      31        2.12756      0.0312500
      32        2.13455      0.0312500
      33        2.60525      0.0312500
      34        2.97812      0.0312500
      35        2.99070      0.0312500
      36        3.25061      0.0312500
      37        3.41581      0.0312500
      38        5.56536        0.00000
      39        5.62160        0.00000
      40        7.12858        0.00000
      41        8.84656        0.00000
      42        9.77339        0.00000
      43        9.95000        0.00000
      44        9.95531        0.00000
      45        10.4538        0.00000
      46        10.8849        0.00000
      47        11.6463        0.00000

 60/64 kpoint (Cartesian) = 0.116929 0.0779527 0.116929 (886 pws)
       1       -39.1128      0.0312500
       2       -39.1002      0.0312500
       3       -39.0960      0.0312500
       4       -39.0236      0.0312500
       5       -39.0229      0.0312500
       6       -39.0183      0.0312500
       7       -39.0173      0.0312500
       8       -39.0043      0.0312500
       9       -39.0013      0.0312500
      10       -38.8213      0.0312500
      11       -38.8181      0.0312500
      12       -38.8168      0.0312500
      13       -38.8140      0.0312500
      14       -38.8043      0.0312500
      15       -38.8013      0.0312500
      16       -17.7728      0.0312500
      17       -12.4326      0.0312500
      18       -12.4183      0.0312500
      19       -12.0481      0.0312500
      20       -12.0474      0.0312500
      21       -12.0435      0.0312500
      22       -8.17190      0.0312500
      23       -8.00619      0.0312500
      24       -7.83680      0.0312500
      25       -5.02476      0.0312500
      26       -5.02060      0.0312500
      27       -5.01317      0.0312500
      28       -4.23029      0.0312500
      29        1.13375      0.0312500
      30        1.40129      0.0312500
      31        1.97667      0.0312500
      32        2.21595      0.0312500
      33        2.42672      0.0312500
      34        2.90314      0.0312500
      35        2.98758      0.0312500
      36        3.10187      0.0312500
      37        3.13456      0.0312500
      38        5.73188        0.00000
      39        7.19915        0.00000
      40        7.25091        0.00000
      41        8.84742        0.00000
      42        9.77781        0.00000
      43        10.1440        0.00000
      44        10.1638        0.00000
      45        10.2939        0.00000
      46        10.6444        0.00000
      47        11.2622        0.00000

 61/64 kpoint (Cartesian) = 0.00000 0.116929 0.116929 (890 pws)
       1       -39.1121      0.0312500
       2       -39.0946      0.0312500
       3       -39.0828      0.0312500
       4       -39.0231      0.0312500
       5       -39.0222      0.0312500
       6       -39.0183      0.0312500
       7       -39.0173      0.0312500
       8       -39.0040      0.0312500
       9       -39.0007      0.0312500
      10       -38.8213      0.0312500
      11       -38.8181      0.0312500
      12       -38.8168      0.0312500
      13       -38.8140      0.0312500
      14       -38.8043      0.0312500
      15       -38.8013      0.0312500
      16       -17.7745      0.0312500
      17       -12.4096      0.0312500
      18       -12.3764      0.0312500
      19       -12.0431      0.0312500
      20       -12.0384      0.0312500
      21       -12.0363      0.0312500
      22       -8.34282      0.0312500
      23       -7.83530      0.0312500
      24       -7.72392      0.0312500
      25       -5.02019      0.0312500
      26       -5.01458      0.0312500
      27       -5.01187      0.0312500
      28       -3.58777      0.0312500
      29       0.212404      0.0312500
      30       0.937385      0.0312500
      31        1.32967      0.0312500
      32        2.39411      0.0312500
      33        2.65375      0.0312500
      34        2.71492      0.0312500
      35        2.79996      0.0312500
      36        2.85793      0.0312500
      37        3.01193      0.0312500
      38        7.24032        0.00000
      39        7.52539        0.00000
      40        8.18648        0.00000
      41        8.74971        0.00000
      42        9.67738        0.00000
      43        9.68362        0.00000
      44        10.3628        0.00000
      45        10.4087        0.00000
      46        10.4527        0.00000
      47        11.6984        0.00000

 62/64 kpoint (Cartesian) = 0.0389764 0.116929 0.116929 (892 pws)
       1       -39.1147      0.0312500
       2       -39.1002      0.0312500
       3       -39.0842      0.0312500
       4       -39.0236      0.0312500
       5       -39.0229      0.0312500
       6       -39.0183      0.0312500
       7       -39.0173      0.0312500
       8       -39.0040      0.0312500
       9       -39.0007      0.0312500
      10       -38.8213      0.0312500
      11       -38.8181      0.0312500
      12       -38.8168      0.0312500
      13       -38.8140      0.0312500
      14       -38.8043      0.0312500
      15       -38.8013      0.0312500
      16       -17.7741      0.0312500
      17       -12.4311      0.0312500
      18       -12.3869      0.0312500
      19       -12.0438      0.0312500
      20       -12.0431      0.0312500
      21       -12.0419      0.0312500
      22       -8.28963      0.0312500
      23       -7.84146      0.0312500
      24       -7.82422      0.0312500
      25       -5.02236      0.0312500
      26       -5.02135      0.0312500
      27       -5.00905      0.0312500
      28       -3.95808      0.0312500
      29        1.00905      0.0312500
      30        1.08617      0.0312500
      31        1.50505      0.0312500
      32        2.38165      0.0312500
      33        2.39654      0.0312500
      34        2.55249      0.0312500
      35        2.99468      0.0312500
      36        3.00641      0.0312500
      37        3.02086      0.0312500
      38        7.09841        0.00000
      39        7.29713        0.00000
      40        7.48832        0.00000
      41        8.47020        0.00000
      42        9.81766        0.00000
      43        9.83231        0.00000
      44        10.4231        0.00000
      45        10.4400        0.00000
      46        10.5150        0.00000
      47        11.3031        0.00000

 63/64 kpoint (Cartesian) = 0.0779527 0.116929 0.116929 (893 pws)
       1       -39.1197      0.0312500
       2       -39.1041      0.0312500
       3       -39.0847      0.0312500
       4       -39.0242      0.0312500
       5       -39.0236      0.0312500
       6       -39.0183      0.0312500
       7       -39.0173      0.0312500
       8       -39.0040      0.0312500
       9       -39.0007      0.0312500
      10       -38.8213      0.0312500
      11       -38.8181      0.0312500
      12       -38.8168      0.0312500
      13       -38.8140      0.0312500
      14       -38.8043      0.0312500
      15       -38.8013      0.0312500
      16       -17.7738      0.0312500
      17       -12.4598      0.0312500
      18       -12.3902      0.0312500
      19       -12.0491      0.0312500
      20       -12.0478      0.0312500
      21       -12.0432      0.0312500
      22       -8.18098      0.0312500
      23       -8.00449      0.0312500
      24       -7.82518      0.0312500
      25       -5.02422      0.0312500
      26       -5.02036      0.0312500
      27       -5.01400      0.0312500
      28       -4.23423      0.0312500
      29        1.10656      0.0312500
      30        1.44011      0.0312500
      31        1.99333      0.0312500
      32        2.21897      0.0312500
      33        2.42081      0.0312500
      34        2.86286      0.0312500
      35        2.99627      0.0312500
      36        3.09137      0.0312500
      37        3.14610      0.0312500
      38        5.78281        0.00000
      39        7.03319        0.00000
      40        7.34245        0.00000
      41        8.85094        0.00000
      42        9.77677        0.00000
      43        10.1452        0.00000
      44        10.1740        0.00000
      45        10.2865        0.00000
      46        10.6401        0.00000
      47        11.2661        0.00000

 64/64 kpoint (Cartesian) = 0.116929 0.116929 0.116929 (892 pws)
       1       -39.1146      0.0312500
       2       -39.1003      0.0312500
       3       -39.0842      0.0312500
       4       -39.0236      0.0312500
       5       -39.0229      0.0312500
       6       -39.0183      0.0312500
       7       -39.0173      0.0312500
       8       -39.0040      0.0312500
       9       -39.0007      0.0312500
      10       -38.8213      0.0312500
      11       -38.8181      0.0312500
      12       -38.8168      0.0312500
      13       -38.8140      0.0312500
      14       -38.8043      0.0312500
      15       -38.8013      0.0312500
      16       -17.7741      0.0312500
      17       -12.4310      0.0312500
      18       -12.3869      0.0312500
      19       -12.0438      0.0312500
      20       -12.0432      0.0312500
      21       -12.0421      0.0312500
      22       -8.28910      0.0312500
      23       -7.84860      0.0312500
      24       -7.81755      0.0312500
      25       -5.02313      0.0312500
      26       -5.02144      0.0312500
      27       -5.00797      0.0312500
      28       -3.95836      0.0312500
      29       0.978493      0.0312500
      30        1.12285      0.0312500
      31        1.50337      0.0312500
      32        2.36561      0.0312500
      33        2.41564      0.0312500
      34        2.54007      0.0312500
      35        2.99248      0.0312500
      36        3.00468      0.0312500
      37        3.02789      0.0312500
      38        7.13227        0.00000
      39        7.31748        0.00000
      40        7.43204        0.00000
      41        8.46720        0.00000
      42        9.80185        0.00000
      43        9.86256        0.00000
      44        10.4053        0.00000
      45        10.4681        0.00000
      46        10.5053        0.00000
      47        11.3250        0.00000

 EFERMI = 3.630263402095804 eV
 OUT.ABACUS/ final etot is -10326.64238758135 eV
 Descriptors have been printed to .//descriptor.dat
 Calculate the energy density matrix with k 
                                      irr = 9740
                                 LNNR.nnr = 9740
                                      irr = 9740
                                 LNNR.nnr = 9740
 Calculate the energy density matrix with k 
                                      irr = 9740
                                 LNNR.nnr = 9740
                                      irr = 9740
                                 LNNR.nnr = 9740
 LNNR.nnrg in cal_force_k = 92583
 F_delta has been printed to .//F_delta.dat
 correction force for each atom along direction 1 is -0.000118267
 correction force for each atom along direction 2 is -9.08400e-05
 correction force for each atom along direction 3 is 9.82649e-06

 ><><><><><><><><><><><><><><><><><><><><><><

    TOTAL-FORCE (eV/Angstrom)

 ><><><><><><><><><><><><><><><><><><><><><><

     atom              x              y              z
      Cs1  -0.0016230408  +0.0051504376   -0.018781611
      Pb1   +0.042713344  -0.0096456180   -0.046058033
       I1   -0.060713652   +0.011416266    +0.13729956
       I2   -0.045314005   -0.011606900   -0.042662529
       I3   +0.064937355  +0.0046858143   -0.029797386


 --------------------------------------------
 !FINAL_ETOT_IS -10326.64238758135 eV
 --------------------------------------------






  |CLASS_NAME---------|NAME---------------|TIME(Sec)-----|CALLS----|AVG------|PER%-------
                                      total         46.946        11       4.3   1.0e+02%
               Run_lcao           lcao_line         46.937         1       47.    1.e+02%
            ORB_control      read_orb_first        0.72134         1      0.72       1.5%
          LCAO_Orbitals       Read_Orbitals        0.72134         1      0.72       1.5%
            NOrbital_Lm       extra_uniform        0.55812        64    0.0087       1.2%
          Mathzone_Add1       Uni_Deriv_Phi        0.51843        64    0.0081       1.1%
            ORB_control      set_orb_tables         19.390         1       19.       41.%
         ORB_gen_tables          gen_tables         19.390         1       19.       41.%
          ORB_table_phi          init_Table         5.0956         1       5.1       11.%
          ORB_table_phi      cal_ST_Phi12_R         5.0494       678    0.0074       11.%
         ORB_table_beta     init_Table_Beta         4.0329         1       4.0       8.6%
         ORB_table_beta       VNL_PhiBeta_R         4.0038       574    0.0070       8.5%
        ORB_table_alpha    init_Table_Alpha         10.031         1       10.       21.%
        ORB_table_alpha        S_PhiAlpha_R         9.9687      1260    0.0079       21.%
              Potential            v_of_rho        0.12560        12     0.010      0.27%
                H_XC_pw                v_xc        0.12186        13    0.0094      0.26%
              LOOP_ions            opt_ions         26.268         1       26.       56.%
              LOOP_elec     solve_elec_stru         19.101         1       19.       41.%
              LOOP_elec              solver         18.923         1       19.       40.%
               ELEC_scf                 scf         18.923         1       19.       40.%
          ELEC_cbands_k           cal_bands         15.224        10       1.5       32.%
            LCAO_Deepks  cal_projected_DM_k         17.446        12       1.5       37.%
        LCAO_DESCRIPTOR       add_v_delta_k         2.3374        10      0.23       5.0%
                 Gint_k              vlocal         2.0048        10      0.20       4.3%
             Efficience              each_k         5.9210       640    0.0093       13.%
             Efficience                 H_k         1.9798       640    0.0031       4.2%
            LCAO_Hamilt        calculate_Hk         1.9780       640    0.0031       4.2%
                 Gint_k        folding_vl_k        0.53813       640   0.00084       1.1%
                 Gint_k              Distri        0.29960       640   0.00047      0.64%
               LCAO_nnr      folding_fixedH         1.4343       640    0.0022       3.1%
             Efficience             diago_k         3.9405       640    0.0062       8.4%
      Diago_LCAO_Matrix          elpa_solve         3.7725       640    0.0059       8.0%
      Diago_LCAO_Matrix    gath_eig_complex        0.12859       640   0.00020      0.27%
      Local_Orbital_Cha           sum_bands         3.3960        10      0.34       7.2%
            LCAO_Charge            cal_dk_k         1.5380        10      0.15       3.3%
                 Gint_k           cal_rho_k         1.5655        10      0.16       3.3%
              LOOP_ions        force_stress         6.6920         1       6.7       14.%
      Force_Stress_LCAO      getForceStress         6.6920         1       6.7       14.%
           Force_LCAO_k            ftable_k         3.5782         1       3.6       7.6%
           Force_LCAO_k      cal_foverlap_k        0.34485         1      0.34      0.73%
           Force_LCAO_k           set_EDM_k        0.65772         2      0.33       1.4%
           Force_LCAO_k      cal_fvl_dphi_k         1.6955         1       1.7       3.6%
                 Gint_k     svl_k_RealSpace         1.6613         1       1.7       3.5%
                 Gint_k   evaluate_vl_force         1.4655      1800   0.00081       3.1%
           Force_LCAO_kcal_fvnl_dbeta_k_new        0.12815         1      0.13      0.27%
            LCAO_Deepkscal_f_delta_hf_k_new        0.50536         1      0.51       1.1%
            LCAO_Deepks          cal_gdmx_k         2.9786         1       3.0       6.3%
 ----------------------------------------------------------------------------------------

 CLASS_NAME---------|NAME---------------|MEMORY(MB)--------
                                         1.165e+05
        ORB_table_phi               Jl(x)          142.9
      ORB_table_alpha           Table_DSR          16.18
        ORB_table_phi         Table_SR&TR          10.58
       ORB_table_beta            Table_NR          5.354
        Grid_Meshcell        index2normal          2.512
        Grid_Meshcell         index2ucell          2.512
        init_meshball        meshball_pos          2.275
 ----------------------------------------------------------

 Start  Time  : Thu Mar 10 14:13:51 2022
 Finish Time  : Thu Mar 10 14:14:38 2022
 Total  Time  : 0 h 0 mins 47 secs 
