                                                                                     
                             WELCOME TO ABACUS                                       
                                                                                     
               'Atomic-orbital Based Ab-initio Computation at UStc'                  
                                                                                     
                     Website: http://abacus.ustc.edu.cn/                             
                                                                                     
    Version: Parallel, in development
    Processor Number is 16
    Start Time is Wed Apr  6 22:37:58 2022
                                                                                     
 ------------------------------------------------------------------------------------

 READING GENERAL INFORMATION
                           global_out_dir = OUT.ABACUS/
                           global_in_card = INPUT
                               pseudo_dir = 
                              orbital_dir = 
                              pseudo_type = auto
                                    DRANK = 1
                                    DSIZE = 16
                                   DCOLOR = 1
                                    GRANK = 1
                                    GSIZE = 1




 >>>>>>>>>>>>>>>>>>>>>>>>>>>>>>>>>>>>>>>>>>>>>>>>>>>>>>>>>>>>>>>>>>>>>>
 |                                                                    |
 | Reading atom information in unitcell:                              |
 | From the input file and the structure file we know the number of   |
 | different elments in this unitcell, then we list the detail        |
 | information for each element, especially the zeta and polar atomic |
 | orbital number for each element. The total atom number is counted. |
 | We calculate the nearest atom distance for each atom and show the  |
 | Cartesian and Direct coordinates for each atom. We list the file   |
 | address for atomic orbitals. The volume and the lattice vectors    |
 | in real and reciprocal space is also shown.                        |
 |                                                                    |
 <<<<<<<<<<<<<<<<<<<<<<<<<<<<<<<<<<<<<<<<<<<<<<<<<<<<<<<<<<<<<<<<<<<<<<




 READING UNITCELL INFORMATION
                                    ntype = 2
                 atom label for species 1 = Cu
                 atom label for species 2 = N
                  lattice constant (Bohr) = 1.88973
              lattice constant (Angstrom) = 1

 READING ATOM TYPE 1
                               atom label = Cu
                      L=0, number of zeta = 4
                      L=1, number of zeta = 2
                      L=2, number of zeta = 2
                      L=3, number of zeta = 1
             number of atom for this type = 3
                      start magnetization = FALSE
                      start magnetization = FALSE
                      start magnetization = FALSE

 READING ATOM TYPE 2
                               atom label = N
                      L=0, number of zeta = 2
                      L=1, number of zeta = 2
                      L=2, number of zeta = 1
             number of atom for this type = 1
                      start magnetization = FALSE

                        TOTAL ATOM NUMBER = 4

 CARTESIAN COORDINATES ( UNIT = 1.88973 Bohr ).
         atom                   x                   y                   z                 mag                  vx                  vy                  vz
     tauc_Cu1     0.0468301930836       3.74553021871       2.01793426263                   0                   0                   0                   0
     tauc_Cu2       3.81154841537       1.80491456572       3.80259865223                   0                   0                   0                   0
     tauc_Cu3       1.88372691549       3.76431154372     0.0772937804616                   0                   0                   0                   0
      tauc_N1       3.72176855266       3.78050441998       3.78221069273                   0                   0                   0                   0


 READING ORBITAL FILE NAMES FOR LCAO
 orbital file: /root/Orb_SG15_DZP_E60_Standard_v1.0/Cu_gga_9au_60Ry_4s2p2d1f.orb
 orbital file: /root/Orb_SG15_DZP_E60_Standard_v1.0/N_gga_8au_60Ry_2s2p1d.orb

                          Volume (Bohr^3) = 374.610418729
                             Volume (A^3) = 55.5114704417

 Lattice vectors: (Cartesian coordinate: in unit of a_0)
        +3.8147060871                  +0                  +0
                   +0       +3.8147060871                  +0
                   +0                  +0       +3.8147060871
 Reciprocal vectors: (Cartesian coordinate: in unit of 2 pi/a_0)
      +0.262143393794                  +0                  +0
                   +0     +0.262143393794                  +0
                   +0                  -0     +0.262143393794




 >>>>>>>>>>>>>>>>>>>>>>>>>>>>>>>>>>>>>>>>>>>>>>>>>>>>>>>>>>>>>>>>>>>>>>
 |                                                                    |
 | Reading pseudopotentials files:                                    |
 | The pseudopotential file is in UPF format. The 'NC' indicates that |
 | the type of pseudopotential is 'norm conserving'. Functional of    |
 | exchange and correlation is decided by 4 given parameters in UPF   |
 | file.  We also read in the 'core correction' if there exists.      |
 | Also we can read the valence electrons number and the maximal      |
 | angular momentum used in this pseudopotential. We also read in the |
 | trail wave function, trail atomic density and local-pseudopotential|
 | on logrithmic grid. The non-local pseudopotential projector is also|
 | read in if there is any.                                           |
 |                                                                    |
 <<<<<<<<<<<<<<<<<<<<<<<<<<<<<<<<<<<<<<<<<<<<<<<<<<<<<<<<<<<<<<<<<<<<<<




                PAO radial cut off (Bohr) = 15

 Read in pseudopotential file is /root/SG15_ONCV_v1.0_upf/Cu_ONCV_PBE-1.0.upf
                     pseudopotential type = NC
                            functional Ex = PBE
                            functional Ec = 
                          functional GCEx = 
                          functional GCEc = 
                 nonlocal core correction = 0
                        valence electrons = 19
                                     lmax = 2
                           number of zeta = 0
                     number of projectors = 6
                           L of projector = 0
                           L of projector = 0
                           L of projector = 1
                           L of projector = 1
                           L of projector = 2
                           L of projector = 2

 XC functional updated to : 
                            functional Ex = PBE
                            functional Ec = 
                          functional GCEx = 
                          functional GCEc = 
                PAO radial cut off (Bohr) = 15

 Read in pseudopotential file is /root/SG15_ONCV_v1.0_upf/N_ONCV_PBE-1.0.upf
                     pseudopotential type = NC
                            functional Ex = PBE
                            functional Ec = 
                          functional GCEx = 
                          functional GCEc = 
                 nonlocal core correction = 0
                        valence electrons = 5
                                     lmax = 1
                           number of zeta = 0
                     number of projectors = 4
                           L of projector = 0
                           L of projector = 0
                           L of projector = 1
                           L of projector = 1

 XC functional updated to : 
                            functional Ex = PBE
                            functional Ec = 
                          functional GCEx = 
                          functional GCEc = 
     initial pseudo atomic orbital number = 0
                                   NLOCAL = 94

 SETUP THE ELECTRONS NUMBER
            electron number of element Cu = 19
      total electron number of element Cu = 57
             electron number of element N = 5
       total electron number of element N = 5
                           occupied bands = 31
                                   NLOCAL = 94
                                   NBANDS = 41
                                   NBANDS = 41
 DONE : SETUP UNITCELL Time : 0.0446757559205 (SEC)





 >>>>>>>>>>>>>>>>>>>>>>>>>>>>>>>>>>>>>>>>>>>>>>>>>>>>>>>>>>>>>>>>>>>>>>
 |                                                                    |
 | Setup K-points                                                     |
 | We setup the k-points according to input parameters.               |
 | The reduced k-points are set according to symmetry operations.     |
 | We treat the spin as another set of k-points.                      |
 |                                                                    |
 <<<<<<<<<<<<<<<<<<<<<<<<<<<<<<<<<<<<<<<<<<<<<<<<<<<<<<<<<<<<<<<<<<<<<<





 SETUP K-POINTS
                                    nspin = 1
                   Input type of k points = Monkhorst-Pack(Gamma)
                                   nkstot = 125

  KPOINTS            DIRECT_X            DIRECT_Y            DIRECT_Z              WEIGHT
        1                   0                   0                   0               0.008
        2                 0.2                   0                   0               0.008
        3                 0.4                   0                   0               0.008
        4                 0.6                   0                   0               0.008
        5                 0.8                   0                   0               0.008
        6                   0                 0.2                   0               0.008
        7                 0.2                 0.2                   0               0.008
        8                 0.4                 0.2                   0               0.008
        9                 0.6                 0.2                   0               0.008
       10                 0.8                 0.2                   0               0.008
       11                   0                 0.4                   0               0.008
       12                 0.2                 0.4                   0               0.008
       13                 0.4                 0.4                   0               0.008
       14                 0.6                 0.4                   0               0.008
       15                 0.8                 0.4                   0               0.008
       16                   0                 0.6                   0               0.008
       17                 0.2                 0.6                   0               0.008
       18                 0.4                 0.6                   0               0.008
       19                 0.6                 0.6                   0               0.008
       20                 0.8                 0.6                   0               0.008
       21                   0                 0.8                   0               0.008
       22                 0.2                 0.8                   0               0.008
       23                 0.4                 0.8                   0               0.008
       24                 0.6                 0.8                   0               0.008
       25                 0.8                 0.8                   0               0.008
       26                   0                   0                 0.2               0.008
       27                 0.2                   0                 0.2               0.008
       28                 0.4                   0                 0.2               0.008
       29                 0.6                   0                 0.2               0.008
       30                 0.8                   0                 0.2               0.008
       31                   0                 0.2                 0.2               0.008
       32                 0.2                 0.2                 0.2               0.008
       33                 0.4                 0.2                 0.2               0.008
       34                 0.6                 0.2                 0.2               0.008
       35                 0.8                 0.2                 0.2               0.008
       36                   0                 0.4                 0.2               0.008
       37                 0.2                 0.4                 0.2               0.008
       38                 0.4                 0.4                 0.2               0.008
       39                 0.6                 0.4                 0.2               0.008
       40                 0.8                 0.4                 0.2               0.008
       41                   0                 0.6                 0.2               0.008
       42                 0.2                 0.6                 0.2               0.008
       43                 0.4                 0.6                 0.2               0.008
       44                 0.6                 0.6                 0.2               0.008
       45                 0.8                 0.6                 0.2               0.008
       46                   0                 0.8                 0.2               0.008
       47                 0.2                 0.8                 0.2               0.008
       48                 0.4                 0.8                 0.2               0.008
       49                 0.6                 0.8                 0.2               0.008
       50                 0.8                 0.8                 0.2               0.008
       51                   0                   0                 0.4               0.008
       52                 0.2                   0                 0.4               0.008
       53                 0.4                   0                 0.4               0.008
       54                 0.6                   0                 0.4               0.008
       55                 0.8                   0                 0.4               0.008
       56                   0                 0.2                 0.4               0.008
       57                 0.2                 0.2                 0.4               0.008
       58                 0.4                 0.2                 0.4               0.008
       59                 0.6                 0.2                 0.4               0.008
       60                 0.8                 0.2                 0.4               0.008
       61                   0                 0.4                 0.4               0.008
       62                 0.2                 0.4                 0.4               0.008
       63                 0.4                 0.4                 0.4               0.008
       64                 0.6                 0.4                 0.4               0.008
       65                 0.8                 0.4                 0.4               0.008
       66                   0                 0.6                 0.4               0.008
       67                 0.2                 0.6                 0.4               0.008
       68                 0.4                 0.6                 0.4               0.008
       69                 0.6                 0.6                 0.4               0.008
       70                 0.8                 0.6                 0.4               0.008
       71                   0                 0.8                 0.4               0.008
       72                 0.2                 0.8                 0.4               0.008
       73                 0.4                 0.8                 0.4               0.008
       74                 0.6                 0.8                 0.4               0.008
       75                 0.8                 0.8                 0.4               0.008
       76                   0                   0                 0.6               0.008
       77                 0.2                   0                 0.6               0.008
       78                 0.4                   0                 0.6               0.008
       79                 0.6                   0                 0.6               0.008
       80                 0.8                   0                 0.6               0.008
       81                   0                 0.2                 0.6               0.008
       82                 0.2                 0.2                 0.6               0.008
       83                 0.4                 0.2                 0.6               0.008
       84                 0.6                 0.2                 0.6               0.008
       85                 0.8                 0.2                 0.6               0.008
       86                   0                 0.4                 0.6               0.008
       87                 0.2                 0.4                 0.6               0.008
       88                 0.4                 0.4                 0.6               0.008
       89                 0.6                 0.4                 0.6               0.008
       90                 0.8                 0.4                 0.6               0.008
       91                   0                 0.6                 0.6               0.008
       92                 0.2                 0.6                 0.6               0.008
       93                 0.4                 0.6                 0.6               0.008
       94                 0.6                 0.6                 0.6               0.008
       95                 0.8                 0.6                 0.6               0.008
       96                   0                 0.8                 0.6               0.008
       97                 0.2                 0.8                 0.6               0.008
       98                 0.4                 0.8                 0.6               0.008
       99                 0.6                 0.8                 0.6               0.008
      100                 0.8                 0.8                 0.6               0.008
      101                   0                   0                 0.8               0.008
      102                 0.2                   0                 0.8               0.008
      103                 0.4                   0                 0.8               0.008
      104                 0.6                   0                 0.8               0.008
      105                 0.8                   0                 0.8               0.008
      106                   0                 0.2                 0.8               0.008
      107                 0.2                 0.2                 0.8               0.008
      108                 0.4                 0.2                 0.8               0.008
      109                 0.6                 0.2                 0.8               0.008
      110                 0.8                 0.2                 0.8               0.008
      111                   0                 0.4                 0.8               0.008
      112                 0.2                 0.4                 0.8               0.008
      113                 0.4                 0.4                 0.8               0.008
      114                 0.6                 0.4                 0.8               0.008
      115                 0.8                 0.4                 0.8               0.008
      116                   0                 0.6                 0.8               0.008
      117                 0.2                 0.6                 0.8               0.008
      118                 0.4                 0.6                 0.8               0.008
      119                 0.6                 0.6                 0.8               0.008
      120                 0.8                 0.6                 0.8               0.008
      121                   0                 0.8                 0.8               0.008
      122                 0.2                 0.8                 0.8               0.008
      123                 0.4                 0.8                 0.8               0.008
      124                 0.6                 0.8                 0.8               0.008
      125                 0.8                 0.8                 0.8               0.008

           k-point number in this process = 125
       minimum distributed K point number = 125

  KPOINTS         CARTESIAN_X         CARTESIAN_Y         CARTESIAN_Z              WEIGHT
        1                   0                   0                   0               0.016
        2     0.0524286787589                   0                   0               0.016
        3      0.104857357518                   0                   0               0.016
        4      0.157286036277                   0                   0               0.016
        5      0.209714715035                   0                   0               0.016
        6                   0     0.0524286787589                   0               0.016
        7     0.0524286787589     0.0524286787589                   0               0.016
        8      0.104857357518     0.0524286787589                   0               0.016
        9      0.157286036277     0.0524286787589                   0               0.016
       10      0.209714715035     0.0524286787589                   0               0.016
       11                   0      0.104857357518                   0               0.016
       12     0.0524286787589      0.104857357518                   0               0.016
       13      0.104857357518      0.104857357518                   0               0.016
       14      0.157286036277      0.104857357518                   0               0.016
       15      0.209714715035      0.104857357518                   0               0.016
       16                   0      0.157286036277                   0               0.016
       17     0.0524286787589      0.157286036277                   0               0.016
       18      0.104857357518      0.157286036277                   0               0.016
       19      0.157286036277      0.157286036277                   0               0.016
       20      0.209714715035      0.157286036277                   0               0.016
       21                   0      0.209714715035                   0               0.016
       22     0.0524286787589      0.209714715035                   0               0.016
       23      0.104857357518      0.209714715035                   0               0.016
       24      0.157286036277      0.209714715035                   0               0.016
       25      0.209714715035      0.209714715035                   0               0.016
       26                   0                   0     0.0524286787589               0.016
       27     0.0524286787589                   0     0.0524286787589               0.016
       28      0.104857357518                   0     0.0524286787589               0.016
       29      0.157286036277                   0     0.0524286787589               0.016
       30      0.209714715035                   0     0.0524286787589               0.016
       31                   0     0.0524286787589     0.0524286787589               0.016
       32     0.0524286787589     0.0524286787589     0.0524286787589               0.016
       33      0.104857357518     0.0524286787589     0.0524286787589               0.016
       34      0.157286036277     0.0524286787589     0.0524286787589               0.016
       35      0.209714715035     0.0524286787589     0.0524286787589               0.016
       36                   0      0.104857357518     0.0524286787589               0.016
       37     0.0524286787589      0.104857357518     0.0524286787589               0.016
       38      0.104857357518      0.104857357518     0.0524286787589               0.016
       39      0.157286036277      0.104857357518     0.0524286787589               0.016
       40      0.209714715035      0.104857357518     0.0524286787589               0.016
       41                   0      0.157286036277     0.0524286787589               0.016
       42     0.0524286787589      0.157286036277     0.0524286787589               0.016
       43      0.104857357518      0.157286036277     0.0524286787589               0.016
       44      0.157286036277      0.157286036277     0.0524286787589               0.016
       45      0.209714715035      0.157286036277     0.0524286787589               0.016
       46                   0      0.209714715035     0.0524286787589               0.016
       47     0.0524286787589      0.209714715035     0.0524286787589               0.016
       48      0.104857357518      0.209714715035     0.0524286787589               0.016
       49      0.157286036277      0.209714715035     0.0524286787589               0.016
       50      0.209714715035      0.209714715035     0.0524286787589               0.016
       51                   0                   0      0.104857357518               0.016
       52     0.0524286787589                   0      0.104857357518               0.016
       53      0.104857357518                   0      0.104857357518               0.016
       54      0.157286036277                   0      0.104857357518               0.016
       55      0.209714715035                   0      0.104857357518               0.016
       56                   0     0.0524286787589      0.104857357518               0.016
       57     0.0524286787589     0.0524286787589      0.104857357518               0.016
       58      0.104857357518     0.0524286787589      0.104857357518               0.016
       59      0.157286036277     0.0524286787589      0.104857357518               0.016
       60      0.209714715035     0.0524286787589      0.104857357518               0.016
       61                   0      0.104857357518      0.104857357518               0.016
       62     0.0524286787589      0.104857357518      0.104857357518               0.016
       63      0.104857357518      0.104857357518      0.104857357518               0.016
       64      0.157286036277      0.104857357518      0.104857357518               0.016
       65      0.209714715035      0.104857357518      0.104857357518               0.016
       66                   0      0.157286036277      0.104857357518               0.016
       67     0.0524286787589      0.157286036277      0.104857357518               0.016
       68      0.104857357518      0.157286036277      0.104857357518               0.016
       69      0.157286036277      0.157286036277      0.104857357518               0.016
       70      0.209714715035      0.157286036277      0.104857357518               0.016
       71                   0      0.209714715035      0.104857357518               0.016
       72     0.0524286787589      0.209714715035      0.104857357518               0.016
       73      0.104857357518      0.209714715035      0.104857357518               0.016
       74      0.157286036277      0.209714715035      0.104857357518               0.016
       75      0.209714715035      0.209714715035      0.104857357518               0.016
       76                   0                   0      0.157286036277               0.016
       77     0.0524286787589                   0      0.157286036277               0.016
       78      0.104857357518                   0      0.157286036277               0.016
       79      0.157286036277                   0      0.157286036277               0.016
       80      0.209714715035                   0      0.157286036277               0.016
       81                   0     0.0524286787589      0.157286036277               0.016
       82     0.0524286787589     0.0524286787589      0.157286036277               0.016
       83      0.104857357518     0.0524286787589      0.157286036277               0.016
       84      0.157286036277     0.0524286787589      0.157286036277               0.016
       85      0.209714715035     0.0524286787589      0.157286036277               0.016
       86                   0      0.104857357518      0.157286036277               0.016
       87     0.0524286787589      0.104857357518      0.157286036277               0.016
       88      0.104857357518      0.104857357518      0.157286036277               0.016
       89      0.157286036277      0.104857357518      0.157286036277               0.016
       90      0.209714715035      0.104857357518      0.157286036277               0.016
       91                   0      0.157286036277      0.157286036277               0.016
       92     0.0524286787589      0.157286036277      0.157286036277               0.016
       93      0.104857357518      0.157286036277      0.157286036277               0.016
       94      0.157286036277      0.157286036277      0.157286036277               0.016
       95      0.209714715035      0.157286036277      0.157286036277               0.016
       96                   0      0.209714715035      0.157286036277               0.016
       97     0.0524286787589      0.209714715035      0.157286036277               0.016
       98      0.104857357518      0.209714715035      0.157286036277               0.016
       99      0.157286036277      0.209714715035      0.157286036277               0.016
      100      0.209714715035      0.209714715035      0.157286036277               0.016
      101                   0                   0      0.209714715035               0.016
      102     0.0524286787589                   0      0.209714715035               0.016
      103      0.104857357518                   0      0.209714715035               0.016
      104      0.157286036277                   0      0.209714715035               0.016
      105      0.209714715035                   0      0.209714715035               0.016
      106                   0     0.0524286787589      0.209714715035               0.016
      107     0.0524286787589     0.0524286787589      0.209714715035               0.016
      108      0.104857357518     0.0524286787589      0.209714715035               0.016
      109      0.157286036277     0.0524286787589      0.209714715035               0.016
      110      0.209714715035     0.0524286787589      0.209714715035               0.016
      111                   0      0.104857357518      0.209714715035               0.016
      112     0.0524286787589      0.104857357518      0.209714715035               0.016
      113      0.104857357518      0.104857357518      0.209714715035               0.016
      114      0.157286036277      0.104857357518      0.209714715035               0.016
      115      0.209714715035      0.104857357518      0.209714715035               0.016
      116                   0      0.157286036277      0.209714715035               0.016
      117     0.0524286787589      0.157286036277      0.209714715035               0.016
      118      0.104857357518      0.157286036277      0.209714715035               0.016
      119      0.157286036277      0.157286036277      0.209714715035               0.016
      120      0.209714715035      0.157286036277      0.209714715035               0.016
      121                   0      0.209714715035      0.209714715035               0.016
      122     0.0524286787589      0.209714715035      0.209714715035               0.016
      123      0.104857357518      0.209714715035      0.209714715035               0.016
      124      0.157286036277      0.209714715035      0.209714715035               0.016
      125      0.209714715035      0.209714715035      0.209714715035               0.016

  KPOINTS            DIRECT_X            DIRECT_Y            DIRECT_Z              WEIGHT
        1                   0                   0                   0               0.016
        2                 0.2                   0                   0               0.016
        3                 0.4                   0                   0               0.016
        4                 0.6                   0                   0               0.016
        5                 0.8                   0                   0               0.016
        6                   0                 0.2                   0               0.016
        7                 0.2                 0.2                   0               0.016
        8                 0.4                 0.2                   0               0.016
        9                 0.6                 0.2                   0               0.016
       10                 0.8                 0.2                   0               0.016
       11                   0                 0.4                   0               0.016
       12                 0.2                 0.4                   0               0.016
       13                 0.4                 0.4                   0               0.016
       14                 0.6                 0.4                   0               0.016
       15                 0.8                 0.4                   0               0.016
       16                   0                 0.6                   0               0.016
       17                 0.2                 0.6                   0               0.016
       18                 0.4                 0.6                   0               0.016
       19                 0.6                 0.6                   0               0.016
       20                 0.8                 0.6                   0               0.016
       21                   0                 0.8                   0               0.016
       22                 0.2                 0.8                   0               0.016
       23                 0.4                 0.8                   0               0.016
       24                 0.6                 0.8                   0               0.016
       25                 0.8                 0.8                   0               0.016
       26                   0                   0                 0.2               0.016
       27                 0.2                   0                 0.2               0.016
       28                 0.4                   0                 0.2               0.016
       29                 0.6                   0                 0.2               0.016
       30                 0.8                   0                 0.2               0.016
       31                   0                 0.2                 0.2               0.016
       32                 0.2                 0.2                 0.2               0.016
       33                 0.4                 0.2                 0.2               0.016
       34                 0.6                 0.2                 0.2               0.016
       35                 0.8                 0.2                 0.2               0.016
       36                   0                 0.4                 0.2               0.016
       37                 0.2                 0.4                 0.2               0.016
       38                 0.4                 0.4                 0.2               0.016
       39                 0.6                 0.4                 0.2               0.016
       40                 0.8                 0.4                 0.2               0.016
       41                   0                 0.6                 0.2               0.016
       42                 0.2                 0.6                 0.2               0.016
       43                 0.4                 0.6                 0.2               0.016
       44                 0.6                 0.6                 0.2               0.016
       45                 0.8                 0.6                 0.2               0.016
       46                   0                 0.8                 0.2               0.016
       47                 0.2                 0.8                 0.2               0.016
       48                 0.4                 0.8                 0.2               0.016
       49                 0.6                 0.8                 0.2               0.016
       50                 0.8                 0.8                 0.2               0.016
       51                   0                   0                 0.4               0.016
       52                 0.2                   0                 0.4               0.016
       53                 0.4                   0                 0.4               0.016
       54                 0.6                   0                 0.4               0.016
       55                 0.8                   0                 0.4               0.016
       56                   0                 0.2                 0.4               0.016
       57                 0.2                 0.2                 0.4               0.016
       58                 0.4                 0.2                 0.4               0.016
       59                 0.6                 0.2                 0.4               0.016
       60                 0.8                 0.2                 0.4               0.016
       61                   0                 0.4                 0.4               0.016
       62                 0.2                 0.4                 0.4               0.016
       63                 0.4                 0.4                 0.4               0.016
       64                 0.6                 0.4                 0.4               0.016
       65                 0.8                 0.4                 0.4               0.016
       66                   0                 0.6                 0.4               0.016
       67                 0.2                 0.6                 0.4               0.016
       68                 0.4                 0.6                 0.4               0.016
       69                 0.6                 0.6                 0.4               0.016
       70                 0.8                 0.6                 0.4               0.016
       71                   0                 0.8                 0.4               0.016
       72                 0.2                 0.8                 0.4               0.016
       73                 0.4                 0.8                 0.4               0.016
       74                 0.6                 0.8                 0.4               0.016
       75                 0.8                 0.8                 0.4               0.016
       76                   0                   0                 0.6               0.016
       77                 0.2                   0                 0.6               0.016
       78                 0.4                   0                 0.6               0.016
       79                 0.6                   0                 0.6               0.016
       80                 0.8                   0                 0.6               0.016
       81                   0                 0.2                 0.6               0.016
       82                 0.2                 0.2                 0.6               0.016
       83                 0.4                 0.2                 0.6               0.016
       84                 0.6                 0.2                 0.6               0.016
       85                 0.8                 0.2                 0.6               0.016
       86                   0                 0.4                 0.6               0.016
       87                 0.2                 0.4                 0.6               0.016
       88                 0.4                 0.4                 0.6               0.016
       89                 0.6                 0.4                 0.6               0.016
       90                 0.8                 0.4                 0.6               0.016
       91                   0                 0.6                 0.6               0.016
       92                 0.2                 0.6                 0.6               0.016
       93                 0.4                 0.6                 0.6               0.016
       94                 0.6                 0.6                 0.6               0.016
       95                 0.8                 0.6                 0.6               0.016
       96                   0                 0.8                 0.6               0.016
       97                 0.2                 0.8                 0.6               0.016
       98                 0.4                 0.8                 0.6               0.016
       99                 0.6                 0.8                 0.6               0.016
      100                 0.8                 0.8                 0.6               0.016
      101                   0                   0                 0.8               0.016
      102                 0.2                   0                 0.8               0.016
      103                 0.4                   0                 0.8               0.016
      104                 0.6                   0                 0.8               0.016
      105                 0.8                   0                 0.8               0.016
      106                   0                 0.2                 0.8               0.016
      107                 0.2                 0.2                 0.8               0.016
      108                 0.4                 0.2                 0.8               0.016
      109                 0.6                 0.2                 0.8               0.016
      110                 0.8                 0.2                 0.8               0.016
      111                   0                 0.4                 0.8               0.016
      112                 0.2                 0.4                 0.8               0.016
      113                 0.4                 0.4                 0.8               0.016
      114                 0.6                 0.4                 0.8               0.016
      115                 0.8                 0.4                 0.8               0.016
      116                   0                 0.6                 0.8               0.016
      117                 0.2                 0.6                 0.8               0.016
      118                 0.4                 0.6                 0.8               0.016
      119                 0.6                 0.6                 0.8               0.016
      120                 0.8                 0.6                 0.8               0.016
      121                   0                 0.8                 0.8               0.016
      122                 0.2                 0.8                 0.8               0.016
      123                 0.4                 0.8                 0.8               0.016
      124                 0.6                 0.8                 0.8               0.016
      125                 0.8                 0.8                 0.8               0.016
 DONE : INIT K-POINTS Time : 0.0487313102061 (SEC)





 >>>>>>>>>>>>>>>>>>>>>>>>>>>>>>>>>>>>>>>>>>>>>>>>>>>>>>>>>>>>>>>>>>>>>>
 |                                                                    |
 | Setup numerical orbitals:                                          |
 | This part setup: numerical atomic orbitals, non-local projectors   |
 | and neutral potential (1D). The atomic orbitals information        |
 | including the radius, angular momentum and zeta number.            |
 | The neutral potential is the sum of local part of pseudopotential  |
 | and potential given by atomic charge, they will cancel out beyond  |
 | a certain radius cutoff, because the Z/r character.                |
 |                                                                    |
 <<<<<<<<<<<<<<<<<<<<<<<<<<<<<<<<<<<<<<<<<<<<<<<<<<<<<<<<<<<<<<<<<<<<<<





 SETUP ONE DIMENSIONAL ORBITALS/POTENTIAL
                        delta k  (1/Bohr) = 0.01
                        delta r    (Bohr) = 0.01
                        dr_uniform (Bohr) = 0.001
                        rmax       (Bohr) = 30
                                    kmesh = 779
      ORBITAL  L  N      nr      dr    RCUT  CHECK_UNIT    NEW_UNIT
            1  0  0     901    0.01       9           1           1
            2  0  1     901    0.01       9           1           1
            3  0  2     901    0.01       9           1           1
            4  0  3     901    0.01       9           1           1
            5  1  0     901    0.01       9           1           1
            6  1  1     901    0.01       9           1           1
            7  2  0     901    0.01       9           1           1
            8  2  1     901    0.01       9           1           1
            9  3  0     901    0.01       9           1           1
      ORBITAL  L  N      nr      dr    RCUT  CHECK_UNIT    NEW_UNIT
            1  0  0     801    0.01       8           1           1
            2  0  1     801    0.01       8           1           1
            3  1  0     801    0.01       8           1           1
            4  1  1     801    0.01       8           1           1
            5  2  0     801    0.01       8           1           1
   DESCRIPTOR  L  N      nr      dr    RCUT  CHECK_UNIT    NEW_UNIT
            1  0  0     505    0.01    5.04        6.33           1
            2  0  1     505    0.01    5.04        1.58           1
            3  0  2     505    0.01    5.04       0.704           1
            4  0  3     505    0.01    5.04       0.396           1
            5  0  4     505    0.01    5.04       0.253           1
            6  0  5     505    0.01    5.04       0.176           1
            7  0  6     505    0.01    5.04       0.129           1
            8  0  7     505    0.01    5.04       0.099           1
            9  0  8     505    0.01    5.04      0.0782           1
           10  0  9     505    0.01    5.04      0.0633           1
           11  0 10     505    0.01    5.04      0.0524           1
           12  0 11     505    0.01    5.04       0.044           1
           13  0 12     505    0.01    5.04      0.0375           1
           14  0 13     505    0.01    5.04      0.0323           1
           15  0 14     505    0.01    5.04      0.0282           1
           16  1  0     505    0.01    5.04        2.95           1
           17  1  1     505    0.01    5.04        1.03           1
           18  1  2     505    0.01    5.04       0.521           1
           19  1  3     505    0.01    5.04       0.314           1
           20  1  4     505    0.01    5.04        0.21           1
           21  1  5     505    0.01    5.04        0.15           1
           22  1  6     505    0.01    5.04       0.113           1
           23  1  7     505    0.01    5.04      0.0878           1
           24  1  8     505    0.01    5.04      0.0703           1
           25  1  9     505    0.01    5.04      0.0575           1
           26  1 10     505    0.01    5.04      0.0479           1
           27  1 11     505    0.01    5.04      0.0406           1
           28  1 12     505    0.01    5.04      0.0348           1
           29  1 13     505    0.01    5.04      0.0302           1
           30  1 14     505    0.01    5.04      0.0264           1
           31  2  0     505    0.01    5.04        1.71           1
           32  2  1     505    0.01    5.04       0.728           1
           33  2  2     505    0.01    5.04       0.403           1
           34  2  3     505    0.01    5.04       0.256           1
           35  2  4     505    0.01    5.04       0.177           1
           36  2  5     505    0.01    5.04        0.13           1
           37  2  6     505    0.01    5.04      0.0994           1
           38  2  7     505    0.01    5.04      0.0785           1
           39  2  8     505    0.01    5.04      0.0635           1
           40  2  9     505    0.01    5.04      0.0525           1
           41  2 10     505    0.01    5.04      0.0441           1
           42  2 11     505    0.01    5.04      0.0376           1
           43  2 12     505    0.01    5.04      0.0324           1
           44  2 13     505    0.01    5.04      0.0282           1
           45  2 14     505    0.01    5.04      0.0248           1
 max number of nonlocal projetors among all species is 6

 SETUP THE TWO-CENTER INTEGRATION TABLES

 SETUP THE DIVISION OF H/S MATRIX
 divide the H&S matrix using 2D block algorithms.
                                     nb2d = 1
                  trace_loc_row dimension = 94
                  trace_loc_col dimension = 94
                                     nloc = 576
 Initialize the descriptor index for DeePKS (lcao line)
 lmax of descriptor = 2
 nmax of descriptor= 15
 total basis (all atoms) for descriptor= 
 Type 1 number_of_atoms 3
 Type 2 number_of_atoms 1
 descriptors_per_atom 135
 total_descriptors 540




 >>>>>>>>>>>>>>>>>>>>>>>>>>>>>>>>>>>>>>>>>>>>>>>>>>>>>>>>>>>>>>>>>>>>>>
 |                                                                    |
 | Setup plane waves:                                                 |
 | Use the energy cutoff and the lattice vectors to generate the      |
 | dimensions of FFT grid. The number of FFT grid on each processor   |
 | is 'nrxx'. The number of plane wave basis in reciprocal space is   |
 | different for charege/potential and wave functions. We also set    |
 | the 'sticks' for the parallel of FFT.                              |
 |                                                                    |
 <<<<<<<<<<<<<<<<<<<<<<<<<<<<<<<<<<<<<<<<<<<<<<<<<<<<<<<<<<<<<<<<<<<<<<





 SETUP THE PLANE WAVE BASIS
     energy cutoff for wavefunc (unit:Ry) = 60
            [fft grid for wave functions] = 36, 36, 36
          [fft grid for charge/potential] = 36, 36, 36
                      [fft grid division] = 2, 2, 2
      [big fft grid for charge/potential] = 18, 18, 18
                                     nbxx = 648
                                     nrxx = 5184

 SETUP PLANE WAVES FOR CHARGE/POTENTIAL
                    number of plane waves = 23583
                         number of sticks = 989

 SETUP PLANE WAVES FOR WAVE FUNCTIONS
                    number of plane waves = 4553
                         number of sticks = 333

 PARALLEL PW FOR CHARGE/POTENTIAL
     PROC   COLUMNS(POT)             PW
        1             62           1476
        2             61           1473
        3             61           1473
        4             61           1473
        5             61           1473
        6             61           1473
        7             61           1473
        8             63           1475
        9             63           1475
       10             63           1475
       11             62           1474
       12             62           1474
       13             62           1474
       14             62           1474
       15             62           1474
       16             62           1474
 --------------- sum -------------------
       16            989          23583

 PARALLEL PW FOR WAVE FUNCTIONS
     PROC     COLUMNS(W)             PW
        1             21            285
        2             22            284
        3             20            286
        4             22            284
        5             20            284
        6             20            284
        7             21            285
        8             21            285
        9             20            284
       10             19            283
       11             21            285
       12             21            283
       13             22            284
       14             21            283
       15             21            287
       16             21            287
 --------------- sum -------------------
       16            333           4553

 SETUP COORDINATES OF PLANE WAVES
              number of total plane waves = 23583

 SETUP COORDINATES OF PLANE WAVES
                            number of |g| = 231
                                  max |g| = 21.6
                                  min |g| = 0
 DONE : INIT PLANEWAVE Time : 15.7 (SEC)

 DONE : INIT CHARGE Time : 15.7 (SEC)

 DONE : INIT POTENTIAL Time : 15.7 (SEC)

                                start_pot = atomic

 -------------------------------------------
 SELF-CONSISTENT
 -------------------------------------------




 >>>>>>>>>>>>>>>>>>>>>>>>>>>>>>>>>>>>>>>>>>>>>>>>>>>>>>>>>>>>>>>>>>>>>>
 |                                                                    |
 | Search adjacent atoms:                                             |
 | Set the adjacent atoms for each atom and set the periodic boundary |
 | condition for the atoms on real space FFT grid. For k-dependent    |
 | algorithm, we also need to set the sparse H and S matrix element   |
 | for each atom.                                                     |
 |                                                                    |
 <<<<<<<<<<<<<<<<<<<<<<<<<<<<<<<<<<<<<<<<<<<<<<<<<<<<<<<<<<<<<<<<<<<<<<





 SETUP SEARCHING RADIUS FOR PROGRAM TO SEARCH ADJACENT ATOMS
                  longest orb rcut (Bohr) = 9
   longest nonlocal projector rcut (Bohr) = 1.96
              searching radius is (Bohr)) = 21.9
         searching radius unit is (Bohr)) = 1.89

 SETUP EXTENDED REAL SPACE GRID FOR GRID INTEGRATION
                        [real space grid] = 36, 36, 36
               [big cell numbers in grid] = 18, 18, 18
           [meshcell numbers in big cell] = 2, 2, 2
                      [extended fft grid] = 23, 23, 23
              [dimension of extened grid] = 65, 65, 65
                            UnitCellTotal = 125
              Atom number in sub-FFT-grid = 4
    Local orbitals number in sub-FFT-grid = 94
                                      nnr = 44354
                                     nnrg = 554028

 SETUP ARRAY FOR EXTRA WAVE FUNCTIONS
                                     daug = 0
                                nnrg_last = 0
                                 nnrg_now = 554028

 LCAO ALGORITHM ------------- ELEC =    1 --------------------------------
 Memory of pvpR : 4.23 MB

 Density error is 0.0548987752738

       Energy                       Rydberg                            eV
   E_KohnSham                -1115.03729189                -15170.8606522
     E_Harris                -1115.25393689                -15173.8082587
      E_Fermi               +0.755867126319                +10.2840998488

 LCAO ALGORITHM ------------- ELEC =    2 --------------------------------
 Memory of pvpR : 4.22689819336 MB

 Density error is 0.0179038559857

       Energy                       Rydberg                            eV
   E_KohnSham                 -1115.1833477                -15172.8478434
     E_Harris                -1115.20684102                -15173.1674865
      E_Fermi               +0.835158466872                +11.3629138824

 LCAO ALGORITHM ------------- ELEC =    3 --------------------------------
 Memory of pvpR : 4.22689819336 MB

 Density error is 0.0119040407311

       Energy                       Rydberg                            eV
   E_KohnSham                 -1115.1883745                -15172.9162365
     E_Harris                -1115.19223089                -15172.9687054
      E_Fermi               +0.822729111557                +11.1938038276

 LCAO ALGORITHM ------------- ELEC =    4 --------------------------------
 Memory of pvpR : 4.22689819336 MB

 Density error is 0.00171489570675

       Energy                       Rydberg                            eV
   E_KohnSham                -1115.19060035                -15172.9465209
     E_Harris                -1115.19094052                -15172.9511491
      E_Fermi                +0.82605608256                +11.2390695904

 LCAO ALGORITHM ------------- ELEC =    5 --------------------------------
 Memory of pvpR : 4.22689819336 MB

 Density error is 0.00066335774035

       Energy                       Rydberg                            eV
   E_KohnSham                -1115.19030773                -15172.9425395
     E_Harris                -1115.19032355                -15172.9427547
      E_Fermi               +0.828463392789                +11.2718227263

 LCAO ALGORITHM ------------- ELEC =    6 --------------------------------
 Memory of pvpR : 4.22689819336 MB

 Density error is 0.000218756722896

       Energy                       Rydberg                            eV
   E_KohnSham                -1115.19027925                -15172.9421521
     E_Harris                -1115.19028206                -15172.9421903
      E_Fermi               +0.828330618735                +11.2700162427

 LCAO ALGORITHM ------------- ELEC =    7 --------------------------------
 Memory of pvpR : 4.22689819336 MB

 Density error is 7.60196131683e-05

       Energy                       Rydberg                            eV
   E_KohnSham                -1115.19033107                 -15172.942857
     E_Harris                -1115.19033165                 -15172.942865
      E_Fermi               +0.828295085423                +11.2695327871

 LCAO ALGORITHM ------------- ELEC =    8 --------------------------------
 Memory of pvpR : 4.22689819336 MB

 Density error is 2.0887182994e-05

       Energy                       Rydberg                            eV
   E_KohnSham                -1115.19033488                -15172.9429089
     E_Harris                 -1115.1903349                -15172.9429092
      E_Fermi               +0.828266013569                +11.2691372443

 LCAO ALGORITHM ------------- ELEC =    9 --------------------------------
 Memory of pvpR : 4.22689819336 MB

 Density error is 5.5616770787e-06

       Energy                       Rydberg                            eV
   E_KohnSham                -1115.19033447                -15172.9429034
     E_Harris                -1115.19033447                -15172.9429034
      E_Fermi               +0.828254188002                +11.2689763492

 LCAO ALGORITHM ------------- ELEC =   10 --------------------------------
 Memory of pvpR : 4.22689819336 MB

 Density error is 1.60477621811e-06

       Energy                       Rydberg                            eV
   E_KohnSham                -1115.19033482                -15172.9429081
     E_Harris                -1115.19033482                -15172.9429081
      E_Fermi                +0.82825531641                 +11.268991702

 LCAO ALGORITHM ------------- ELEC =   11 --------------------------------
 Memory of pvpR : 4.22689819336 MB

 Density error is 8.96461725013e-07

       Energy                       Rydberg                            eV
   E_KohnSham                -1115.19033448                -15172.9429034
     E_Harris                -1115.19033448                -15172.9429034
      E_Fermi               +0.828254449939                 +11.268979913

 LCAO ALGORITHM ------------- ELEC =   12 --------------------------------
 Memory of pvpR : 4.22689819336 MB

 Density error is 3.17385941323e-07

       Energy                       Rydberg                            eV
   E_KohnSham                -1115.19033446                -15172.9429031
     E_Harris                -1115.19033446                -15172.9429031
       E_band                -100.952216435                -1373.52536925
   E_one_elec                -817.832337553                -11127.1797994
    E_Hartree                +429.899715751                 +5849.0857028
         E_xc                -109.567643003                -1490.74426127
      E_Ewald                -617.623525102                -8403.19916023
      E_demet                            +0                            +0
      E_descf                            +0                            +0
     E_efield                            +0                            +0
        E_exx                            +0                            +0
     E_DeePKS             -0.00800721445566               -0.108943741705
      E_Fermi               +0.828254207663                +11.2689766167

 charge density convergence is achieved
 final etot is -15172.9429031 eV

 STATE ENERGY(eV) AND OCCUPATIONS    NSPIN == 1
 1/125 kpoint (Cartesian) = 0 0 0 (185 pws)
       1       -101.491      0.0160000
       2       -101.481      0.0160000
       3       -101.291      0.0160000
       4       -59.0500      0.0160000
       5       -58.9817      0.0160000
       6       -58.9739      0.0160000
       7       -58.6132      0.0160000
       8       -58.6121      0.0160000
       9       -58.5850      0.0160000
      10       -58.5713      0.0160000
      11       -58.5692      0.0160000
      12       -58.5639      0.0160000
      13       -4.38884      0.0160000
      14        6.22142      0.0160000
      15        6.29619      0.0160000
      16        6.34981      0.0160000
      17        7.29600      0.0160000
      18        7.77931      0.0160000
      19        7.91447      0.0160000
      20        8.09184      0.0160000
      21        8.19285      0.0160000
      22        8.21314      0.0160000
      23        8.78771      0.0160000
      24        9.01987      0.0160000
      25        9.25912      0.0160000
      26        9.28362      0.0160000
      27        9.29562      0.0160000
      28        9.68476      0.0160000
      29        9.70801      0.0160000
      30        9.71856      0.0160000
      31        9.82999      0.0160000
      32        12.7991        0.00000
      33        17.0205        0.00000
      34        17.0848        0.00000
      35        18.8965        0.00000
      36        18.9490        0.00000
      37        19.0603        0.00000
      38        24.9314        0.00000
      39        24.9770        0.00000
      40        25.0231        0.00000
      41        25.3304        0.00000

 2/125 kpoint (Cartesian) = 0.0524287 0.00000 0.00000 (190 pws)
       1       -101.495      0.0160000
       2       -101.488      0.0160000
       3       -101.321      0.0160000
       4       -59.0493      0.0160000
       5       -58.9793      0.0160000
       6       -58.9667      0.0160000
       7       -58.6123      0.0160000
       8       -58.6110      0.0160000
       9       -58.5816      0.0160000
      10       -58.5718      0.0160000
      11       -58.5666      0.0160000
      12       -58.5638      0.0160000
      13       -4.35516      0.0160000
      14        5.23820      0.0160000
      15        6.12191      0.0160000
      16        6.18740      0.0160000
      17        7.44702      0.0160000
      18        7.81441      0.0160000
      19        8.05872      0.0160000
      20        8.15603      0.0160000
      21        8.20017      0.0160000
      22        8.35079      0.0160000
      23        8.78656      0.0160000
      24        9.18430      0.0160000
      25        9.24405      0.0160000
      26        9.26900      0.0160000
      27        9.34493      0.0160000
      28        9.66983      0.0160000
      29        9.72995      0.0160000
      30        9.88826      0.0160000
      31        9.91711      0.0160000
      32        13.2266        0.00000
      33        15.7924        0.00000
      34        17.3269        0.00000
      35        18.7806        0.00000
      36        18.8918        0.00000
      37        20.5554        0.00000
      38        22.6189        0.00000
      39        23.2923        0.00000
      40        23.3106        0.00000
      41        26.6836        0.00000

 3/125 kpoint (Cartesian) = 0.104857 0.00000 0.00000 (192 pws)
       1       -101.516      0.0160000
       2       -101.490      0.0160000
       3       -101.362      0.0160000
       4       -59.0483      0.0160000
       5       -58.9781      0.0160000
       6       -58.9518      0.0160000
       7       -58.6107      0.0160000
       8       -58.6087      0.0160000
       9       -58.5759      0.0160000
      10       -58.5718      0.0160000
      11       -58.5635      0.0160000
      12       -58.5618      0.0160000
      13       -4.29439      0.0160000
      14        4.14069      0.0160000
      15        5.85399      0.0160000
      16        5.90305      0.0160000
      17        7.78012      0.0160000
      18        7.87783      0.0160000
      19        8.10788      0.0160000
      20        8.28961      0.0160000
      21        8.33982      0.0160000
      22        8.63341      0.0160000
      23        8.75232      0.0160000
      24        9.09439      0.0160000
      25        9.17474      0.0160000
      26        9.25959      0.0160000
      27        9.27852      0.0160000
      28        9.50032      0.0160000
      29        9.66554      0.0160000
      30        10.1908      0.0160000
      31        10.2311      0.0160000
      32        13.6288        0.00000
      33        15.0721        0.00000
      34        18.1657        0.00000
      35        18.9890        0.00000
      36        19.0692        0.00000
      37        19.9687        0.00000
      38        21.6921        0.00000
      39        21.7147        0.00000
      40        23.5144        0.00000
      41        27.3248        0.00000

 4/125 kpoint (Cartesian) = 0.157286 0.00000 0.00000 (189 pws)
       1       -101.516      0.0160000
       2       -101.490      0.0160000
       3       -101.362      0.0160000
       4       -59.0483      0.0160000
       5       -58.9781      0.0160000
       6       -58.9518      0.0160000
       7       -58.6107      0.0160000
       8       -58.6087      0.0160000
       9       -58.5759      0.0160000
      10       -58.5718      0.0160000
      11       -58.5635      0.0160000
      12       -58.5618      0.0160000
      13       -4.29439      0.0160000
      14        4.14069      0.0160000
      15        5.85399      0.0160000
      16        5.90305      0.0160000
      17        7.78012      0.0160000
      18        7.87783      0.0160000
      19        8.10788      0.0160000
      20        8.28961      0.0160000
      21        8.33982      0.0160000
      22        8.63341      0.0160000
      23        8.75232      0.0160000
      24        9.09439      0.0160000
      25        9.17474      0.0160000
      26        9.25959      0.0160000
      27        9.27852      0.0160000
      28        9.50032      0.0160000
      29        9.66554      0.0160000
      30        10.1908      0.0160000
      31        10.2311      0.0160000
      32        13.6288        0.00000
      33        15.0721        0.00000
      34        18.1657        0.00000
      35        18.9890        0.00000
      36        19.0692        0.00000
      37        19.9687        0.00000
      38        21.6921        0.00000
      39        21.7147        0.00000
      40        23.5144        0.00000
      41        27.3248        0.00000

 5/125 kpoint (Cartesian) = 0.209715 0.00000 0.00000 (189 pws)
       1       -101.495      0.0160000
       2       -101.488      0.0160000
       3       -101.321      0.0160000
       4       -59.0493      0.0160000
       5       -58.9793      0.0160000
       6       -58.9667      0.0160000
       7       -58.6123      0.0160000
       8       -58.6110      0.0160000
       9       -58.5816      0.0160000
      10       -58.5718      0.0160000
      11       -58.5666      0.0160000
      12       -58.5638      0.0160000
      13       -4.35516      0.0160000
      14        5.23820      0.0160000
      15        6.12191      0.0160000
      16        6.18740      0.0160000
      17        7.44702      0.0160000
      18        7.81441      0.0160000
      19        8.05872      0.0160000
      20        8.15603      0.0160000
      21        8.20017      0.0160000
      22        8.35079      0.0160000
      23        8.78656      0.0160000
      24        9.18430      0.0160000
      25        9.24405      0.0160000
      26        9.26900      0.0160000
      27        9.34493      0.0160000
      28        9.66983      0.0160000
      29        9.72995      0.0160000
      30        9.88826      0.0160000
      31        9.91711      0.0160000
      32        13.2266        0.00000
      33        15.7924        0.00000
      34        17.3269        0.00000
      35        18.7806        0.00000
      36        18.8918        0.00000
      37        20.5554        0.00000
      38        22.6189        0.00000
      39        23.2923        0.00000
      40        23.3106        0.00000
      41        26.6836        0.00000

 6/125 kpoint (Cartesian) = 0.00000 0.0524287 0.00000 (187 pws)
       1       -101.496      0.0160000
       2       -101.486      0.0160000
       3       -101.320      0.0160000
       4       -59.0494      0.0160000
       5       -58.9820      0.0160000
       6       -58.9665      0.0160000
       7       -58.6123      0.0160000
       8       -58.6110      0.0160000
       9       -58.5814      0.0160000
      10       -58.5706      0.0160000
      11       -58.5680      0.0160000
      12       -58.5626      0.0160000
      13       -4.35675      0.0160000
      14        5.31088      0.0160000
      15        6.02766      0.0160000
      16        6.11868      0.0160000
      17        7.45037      0.0160000
      18        7.87687      0.0160000
      19        8.02603      0.0160000
      20        8.16394      0.0160000
      21        8.21944      0.0160000
      22        8.36189      0.0160000
      23        8.91650      0.0160000
      24        9.16620      0.0160000
      25        9.20154      0.0160000
      26        9.29343      0.0160000
      27        9.32052      0.0160000
      28        9.66868      0.0160000
      29        9.73525      0.0160000
      30        9.86937      0.0160000
      31        9.91112      0.0160000
      32        13.2012        0.00000
      33        15.7903        0.00000
      34        17.2745        0.00000
      35        18.8380        0.00000
      36        18.9130        0.00000
      37        20.5493        0.00000
      38        22.6352        0.00000
      39        23.3188        0.00000
      40        23.3826        0.00000
      41        26.6393        0.00000

 7/125 kpoint (Cartesian) = 0.0524287 0.0524287 0.00000 (190 pws)
       1       -101.498      0.0160000
       2       -101.491      0.0160000
       3       -101.352      0.0160000
       4       -59.0487      0.0160000
       5       -58.9781      0.0160000
       6       -58.9615      0.0160000
       7       -58.6115      0.0160000
       8       -58.6100      0.0160000
       9       -58.5788      0.0160000
      10       -58.5771      0.0160000
      11       -58.5632      0.0160000
      12       -58.5571      0.0160000
      13       -4.31559      0.0160000
      14        5.06781      0.0160000
      15        5.30512      0.0160000
      16        6.00925      0.0160000
      17        7.59445      0.0160000
      18        7.96209      0.0160000
      19        8.12915      0.0160000
      20        8.20104      0.0160000
      21        8.27133      0.0160000
      22        8.43555      0.0160000
      23        8.97041      0.0160000
      24        9.01540      0.0160000
      25        9.13786      0.0160000
      26        9.31862      0.0160000
      27        9.39043      0.0160000
      28        9.55579      0.0160000
      29        9.64375      0.0160000
      30        10.1355      0.0160000
      31        10.2342      0.0160000
      32        13.6436        0.00000
      33        15.7667        0.00000
      34        16.1380        0.00000
      35        18.9070        0.00000
      36        19.3433        0.00000
      37        20.5283        0.00000
      38        22.0887        0.00000
      39        22.4221        0.00000
      40        24.5368        0.00000
      41        27.3156        0.00000

 8/125 kpoint (Cartesian) = 0.104857 0.0524287 0.00000 (187 pws)
       1       -101.516      0.0160000
       2       -101.495      0.0160000
       3       -101.395      0.0160000
       4       -59.0476      0.0160000
       5       -58.9760      0.0160000
       6       -58.9493      0.0160000
       7       -58.6101      0.0160000
       8       -58.6082      0.0160000
       9       -58.5832      0.0160000
      10       -58.5704      0.0160000
      11       -58.5637      0.0160000
      12       -58.5478      0.0160000
      13       -4.24398      0.0160000
      14        4.10292      0.0160000
      15        5.08468      0.0160000
      16        5.75353      0.0160000
      17        7.92161      0.0160000
      18        8.08072      0.0160000
      19        8.23283      0.0160000
      20        8.33110      0.0160000
      21        8.41022      0.0160000
      22        8.66947      0.0160000
      23        8.78103      0.0160000
      24        8.96001      0.0160000
      25        9.02474      0.0160000
      26        9.33887      0.0160000
      27        9.41941      0.0160000
      28        9.46763      0.0160000
      29        9.50207      0.0160000
      30        10.3751      0.0160000
      31        10.5347      0.0160000
      32        14.1782        0.00000
      33        14.6476        0.00000
      34        16.5868        0.00000
      35        18.2856        0.00000
      36        19.3311        0.00000
      37        20.9934        0.00000
      38        21.2620        0.00000
      39        22.8816        0.00000
      40        25.0796        0.00000
      41        27.2190        0.00000

 9/125 kpoint (Cartesian) = 0.157286 0.0524287 0.00000 (185 pws)
       1       -101.516      0.0160000
       2       -101.496      0.0160000
       3       -101.394      0.0160000
       4       -59.0475      0.0160000
       5       -58.9761      0.0160000
       6       -58.9494      0.0160000
       7       -58.6101      0.0160000
       8       -58.6082      0.0160000
       9       -58.5830      0.0160000
      10       -58.5706      0.0160000
      11       -58.5635      0.0160000
      12       -58.5480      0.0160000
      13       -4.24392      0.0160000
      14        4.10619      0.0160000
      15        5.07845      0.0160000
      16        5.75216      0.0160000
      17        7.92699      0.0160000
      18        8.08663      0.0160000
      19        8.22974      0.0160000
      20        8.32943      0.0160000
      21        8.41674      0.0160000
      22        8.66744      0.0160000
      23        8.77752      0.0160000
      24        8.95791      0.0160000
      25        9.02634      0.0160000
      26        9.34580      0.0160000
      27        9.42264      0.0160000
      28        9.46433      0.0160000
      29        9.50404      0.0160000
      30        10.3636      0.0160000
      31        10.5340      0.0160000
      32        14.1843        0.00000
      33        14.6406        0.00000
      34        16.6036        0.00000
      35        18.2483        0.00000
      36        19.3313        0.00000
      37        21.0091        0.00000
      38        21.2646        0.00000
      39        22.8688        0.00000
      40        25.0916        0.00000
      41        27.2528        0.00000

 10/125 kpoint (Cartesian) = 0.209715 0.0524287 0.00000 (189 pws)
       1       -101.498      0.0160000
       2       -101.493      0.0160000
       3       -101.351      0.0160000
       4       -59.0485      0.0160000
       5       -58.9782      0.0160000
       6       -58.9617      0.0160000
       7       -58.6114      0.0160000
       8       -58.6100      0.0160000
       9       -58.5785      0.0160000
      10       -58.5770      0.0160000
      11       -58.5630      0.0160000
      12       -58.5575      0.0160000
      13       -4.31551      0.0160000
      14        5.12628      0.0160000
      15        5.23981      0.0160000
      16        6.00406      0.0160000
      17        7.59583      0.0160000
      18        7.97647      0.0160000
      19        8.11581      0.0160000
      20        8.22081      0.0160000
      21        8.27372      0.0160000
      22        8.44186      0.0160000
      23        8.96622      0.0160000
      24        9.01527      0.0160000
      25        9.13373      0.0160000
      26        9.32005      0.0160000
      27        9.38895      0.0160000
      28        9.55580      0.0160000
      29        9.64465      0.0160000
      30        10.1327      0.0160000
      31        10.2296      0.0160000
      32        13.6326        0.00000
      33        15.8016        0.00000
      34        16.1124        0.00000
      35        18.8961        0.00000
      36        19.3071        0.00000
      37        20.5573        0.00000
      38        22.0906        0.00000
      39        22.4260        0.00000
      40        24.5191        0.00000
      41        27.3176        0.00000

 11/125 kpoint (Cartesian) = 0.00000 0.104857 0.00000 (181 pws)
       1       -101.516      0.0160000
       2       -101.488      0.0160000
       3       -101.362      0.0160000
       4       -59.0483      0.0160000
       5       -58.9817      0.0160000
       6       -58.9548      0.0160000
       7       -58.6102      0.0160000
       8       -58.6093      0.0160000
       9       -58.5763      0.0160000
      10       -58.5700      0.0160000
      11       -58.5647      0.0160000
      12       -58.5592      0.0160000
      13       -4.29920      0.0160000
      14        4.17378      0.0160000
      15        5.76511      0.0160000
      16        5.84611      0.0160000
      17        7.78584      0.0160000
      18        7.94542      0.0160000
      19        8.10051      0.0160000
      20        8.31758      0.0160000
      21        8.36768      0.0160000
      22        8.66371      0.0160000
      23        8.77304      0.0160000
      24        9.09610      0.0160000
      25        9.13186      0.0160000
      26        9.27045      0.0160000
      27        9.31102      0.0160000
      28        9.50261      0.0160000
      29        9.67516      0.0160000
      30        10.1520      0.0160000
      31        10.2748      0.0160000
      32        13.5493        0.00000
      33        15.0659        0.00000
      34        18.1045        0.00000
      35        18.9526        0.00000
      36        19.1138        0.00000
      37        20.0585        0.00000
      38        21.7352        0.00000
      39        21.8110        0.00000
      40        23.5373        0.00000
      41        27.2852        0.00000

 12/125 kpoint (Cartesian) = 0.0524287 0.104857 0.00000 (187 pws)
       1       -101.515      0.0160000
       2       -101.494      0.0160000
       3       -101.395      0.0160000
       4       -59.0476      0.0160000
       5       -58.9777      0.0160000
       6       -58.9517      0.0160000
       7       -58.6097      0.0160000
       8       -58.6086      0.0160000
       9       -58.5828      0.0160000
      10       -58.5723      0.0160000
      11       -58.5604      0.0160000
      12       -58.5480      0.0160000
      13       -4.24719      0.0160000
      14        4.13540      0.0160000
      15        5.01234      0.0160000
      16        5.75330      0.0160000
      17        7.93264      0.0160000
      18        8.07942      0.0160000
      19        8.21950      0.0160000
[...]
      23        8.85476      0.0160000
      24        8.88770      0.0160000
      25        9.00197      0.0160000
      26        9.17288      0.0160000
      27        9.46005      0.0160000
      28        9.57482      0.0160000
      29        9.96971      0.0160000
      30        10.6073      0.0160000
      31        11.2000      0.0160000
      32        13.0214        0.00000
      33        15.1477        0.00000
      34        15.4478        0.00000
      35        17.0893        0.00000
      36        19.1733        0.00000
      37        19.7507        0.00000
      38        21.1568        0.00000
      39        25.1893        0.00000
      40        26.6670        0.00000
      41        27.1408        0.00000

 119/125 kpoint (Cartesian) = 0.157286 0.157286 0.209715 (186 pws)
       1       -101.521      0.0160000
       2       -101.514      0.0160000
       3       -101.468      0.0160000
       4       -59.0358      0.0160000
       5       -58.9744      0.0160000
       6       -58.9459      0.0160000
       7       -58.6106      0.0160000
       8       -58.6104      0.0160000
       9       -58.5909      0.0160000
      10       -58.5588      0.0160000
      11       -58.5550      0.0160000
      12       -58.5352      0.0160000
      13       -4.09100      0.0160000
      14        3.96769      0.0160000
      15        4.06775      0.0160000
      16        4.90468      0.0160000
      17        8.26369      0.0160000
      18        8.35845      0.0160000
      19        8.37216      0.0160000
      20        8.51790      0.0160000
      21        8.59538      0.0160000
      22        8.70761      0.0160000
      23        8.80827      0.0160000
      24        8.98679      0.0160000
      25        8.98992      0.0160000
      26        9.16880      0.0160000
      27        9.46282      0.0160000
      28        9.55465      0.0160000
      29        9.96497      0.0160000
      30        10.6178      0.0160000
      31        11.1609      0.0160000
      32        13.0356        0.00000
      33        15.1526        0.00000
      34        15.4385        0.00000
      35        17.0639        0.00000
      36        19.1942        0.00000
      37        19.7217        0.00000
      38        21.1586        0.00000
      39        25.1561        0.00000
      40        26.7555        0.00000
      41        27.1222        0.00000

 120/125 kpoint (Cartesian) = 0.209715 0.157286 0.209715 (186 pws)
       1       -101.515      0.0160000
       2       -101.509      0.0160000
       3       -101.417      0.0160000
       4       -59.0361      0.0160000
       5       -58.9777      0.0160000
       6       -58.9534      0.0160000
       7       -58.6108      0.0160000
       8       -58.6075      0.0160000
       9       -58.5833      0.0160000
      10       -58.5687      0.0160000
      11       -58.5548      0.0160000
      12       -58.5481      0.0160000
      13       -4.19284      0.0160000
      14        4.08874      0.0160000
      15        4.90220      0.0160000
      16        5.07574      0.0160000
      17        8.07476      0.0160000
      18        8.22888      0.0160000
      19        8.36893      0.0160000
      20        8.41191      0.0160000
      21        8.46800      0.0160000
      22        8.71123      0.0160000
      23        8.82900      0.0160000
      24        8.85311      0.0160000
      25        9.10646      0.0160000
      26        9.17557      0.0160000
      27        9.35564      0.0160000
      28        9.49076      0.0160000
      29        9.63211      0.0160000
      30        10.3980      0.0160000
      31        10.8821      0.0160000
      32        14.3437        0.00000
      33        14.9587        0.00000
      34        15.5033        0.00000
      35        18.1725        0.00000
      36        18.5006        0.00000
      37        19.6208        0.00000
      38        23.3752        0.00000
      39        23.7555        0.00000
      40        25.4658        0.00000
      41        25.7420        0.00000

 121/125 kpoint (Cartesian) = 0.00000 0.209715 0.209715 (175 pws)
       1       -101.509      0.0160000
       2       -101.490      0.0160000
       3       -101.342      0.0160000
       4       -59.0367      0.0160000
       5       -58.9813      0.0160000
       6       -58.9669      0.0160000
       7       -58.6101      0.0160000
       8       -58.6077      0.0160000
       9       -58.5783      0.0160000
      10       -58.5711      0.0160000
      11       -58.5687      0.0160000
      12       -58.5610      0.0160000
      13       -4.32052      0.0160000
      14        5.10084      0.0160000
      15        5.31997      0.0160000
      16        5.94540      0.0160000
      17        7.60092      0.0160000
      18        7.95518      0.0160000
      19        8.16494      0.0160000
      20        8.23679      0.0160000
      21        8.28034      0.0160000
      22        8.41770      0.0160000
      23        8.96986      0.0160000
      24        9.02211      0.0160000
      25        9.13766      0.0160000
      26        9.34227      0.0160000
      27        9.37976      0.0160000
      28        9.56054      0.0160000
      29        9.64737      0.0160000
      30        10.1112      0.0160000
      31        10.1804      0.0160000
      32        13.6287        0.00000
      33        15.8190        0.00000
      34        16.1401        0.00000
      35        18.8000        0.00000
      36        19.4376        0.00000
      37        20.5171        0.00000
      38        22.0042        0.00000
      39        22.5431        0.00000
      40        24.5187        0.00000
      41        27.3554        0.00000

 122/125 kpoint (Cartesian) = 0.0524287 0.209715 0.209715 (179 pws)
       1       -101.509      0.0160000
       2       -101.495      0.0160000
       3       -101.375      0.0160000
       4       -59.0365      0.0160000
       5       -58.9779      0.0160000
       6       -58.9621      0.0160000
       7       -58.6105      0.0160000
       8       -58.6090      0.0160000
       9       -58.5786      0.0160000
      10       -58.5713      0.0160000
      11       -58.5620      0.0160000
      12       -58.5568      0.0160000
      13       -4.27267      0.0160000
      14        4.84304      0.0160000
      15        5.10128      0.0160000
      16        5.49639      0.0160000
      17        7.73995      0.0160000
      18        8.08852      0.0160000
      19        8.13079      0.0160000
      20        8.27222      0.0160000
      21        8.42613      0.0160000
      22        8.49258      0.0160000
      23        8.89822      0.0160000
      24        8.94821      0.0160000
      25        9.13573      0.0160000
      26        9.29932      0.0160000
      27        9.35921      0.0160000
      28        9.36826      0.0160000
      29        9.74544      0.0160000
      30        10.3670      0.0160000
      31        10.4990      0.0160000
      32        13.9727        0.00000
      33        15.9414        0.00000
      34        16.0302        0.00000
      35        17.1065        0.00000
      36        19.9161        0.00000
      37        20.0164        0.00000
      38        22.6842        0.00000
      39        22.8254        0.00000
      40        25.1212        0.00000
      41        26.7738        0.00000

 123/125 kpoint (Cartesian) = 0.104857 0.209715 0.209715 (181 pws)
       1       -101.518      0.0160000
       2       -101.505      0.0160000
       3       -101.420      0.0160000
       4       -59.0361      0.0160000
       5       -58.9759      0.0160000
       6       -58.9509      0.0160000
       7       -58.6121      0.0160000
       8       -58.6085      0.0160000
       9       -58.5831      0.0160000
      10       -58.5661      0.0160000
      11       -58.5575      0.0160000
      12       -58.5479      0.0160000
      13       -4.18985      0.0160000
      14        4.04842      0.0160000
      15        4.89570      0.0160000
      16        5.18189      0.0160000
      17        8.05192      0.0160000
      18        8.19982      0.0160000
      19        8.31964      0.0160000
      20        8.40005      0.0160000
      21        8.45135      0.0160000
      22        8.73185      0.0160000
      23        8.81654      0.0160000
      24        8.84899      0.0160000
      25        9.05737      0.0160000
      26        9.22796      0.0160000
      27        9.34789      0.0160000
      28        9.47824      0.0160000
      29        9.64368      0.0160000
      30        10.4245      0.0160000
      31        10.8883      0.0160000
      32        14.3379        0.00000
      33        15.0482        0.00000
      34        15.4914        0.00000
      35        18.0420        0.00000
      36        18.6004        0.00000
      37        19.6459        0.00000
      38        23.3292        0.00000
      39        23.7135        0.00000
      40        25.4688        0.00000
      41        25.7148        0.00000

 124/125 kpoint (Cartesian) = 0.157286 0.209715 0.209715 (182 pws)
       1       -101.520      0.0160000
       2       -101.504      0.0160000
       3       -101.419      0.0160000
       4       -59.0361      0.0160000
       5       -58.9758      0.0160000
       6       -58.9512      0.0160000
       7       -58.6111      0.0160000
       8       -58.6085      0.0160000
       9       -58.5836      0.0160000
      10       -58.5661      0.0160000
      11       -58.5579      0.0160000
      12       -58.5478      0.0160000
      13       -4.18976      0.0160000
      14        4.06883      0.0160000
      15        4.88394      0.0160000
      16        5.15483      0.0160000
      17        8.06992      0.0160000
      18        8.19799      0.0160000
      19        8.35624      0.0160000
      20        8.40424      0.0160000
      21        8.45880      0.0160000
      22        8.69022      0.0160000
      23        8.82721      0.0160000
      24        8.84159      0.0160000
      25        9.11492      0.0160000
      26        9.20337      0.0160000
      27        9.35248      0.0160000
      28        9.48904      0.0160000
      29        9.63309      0.0160000
      30        10.3916      0.0160000
      31        10.8727      0.0160000
      32        14.3274        0.00000
      33        15.0431        0.00000
      34        15.5139        0.00000
      35        18.0726        0.00000
      36        18.5585        0.00000
      37        19.6103        0.00000
      38        23.3682        0.00000
      39        23.7148        0.00000
      40        25.4644        0.00000
      41        25.7146        0.00000

 125/125 kpoint (Cartesian) = 0.209715 0.209715 0.209715 (188 pws)
       1       -101.511      0.0160000
       2       -101.495      0.0160000
       3       -101.374      0.0160000
       4       -59.0362      0.0160000
       5       -58.9779      0.0160000
       6       -58.9624      0.0160000
       7       -58.6093      0.0160000
       8       -58.6083      0.0160000
       9       -58.5801      0.0160000
      10       -58.5718      0.0160000
      11       -58.5612      0.0160000
      12       -58.5572      0.0160000
      13       -4.27256      0.0160000
      14        4.97521      0.0160000
      15        5.06781      0.0160000
      16        5.34637      0.0160000
      17        7.75075      0.0160000
      18        8.12560      0.0160000
      19        8.14742      0.0160000
      20        8.34605      0.0160000
      21        8.42904      0.0160000
      22        8.47131      0.0160000
      23        8.91673      0.0160000
      24        8.95684      0.0160000
      25        9.10798      0.0160000
      26        9.29710      0.0160000
      27        9.36041      0.0160000
      28        9.37060      0.0160000
      29        9.73356      0.0160000
      30        10.3943      0.0160000
      31        10.4204      0.0160000
      32        13.9363        0.00000
      33        15.9651        0.00000
      34        16.0031        0.00000
      35        17.1643        0.00000
      36        19.8812        0.00000
      37        19.9606        0.00000
      38        22.7268        0.00000
      39        22.7931        0.00000
      40        25.1445        0.00000
      41        26.7845        0.00000

 EFERMI = 11.26897661669609 eV
 OUT.ABACUS/ final etot is -15172.94290313128 eV
 Descriptors have been printed to .//descriptor.dat
 Calculate the energy density matrix with k 
                                      irr = 44354
                                 LNNR.nnr = 44354
                                      irr = 44354
                                 LNNR.nnr = 44354
 Calculate the energy density matrix with k 
                                      irr = 44354
                                 LNNR.nnr = 44354
                                      irr = 44354
                                 LNNR.nnr = 44354
 LNNR.nnrg in cal_force_k = 554028
 F_delta has been printed to .//F_delta.dat
 correction force for each atom along direction 1 is 9.48854e-05
 correction force for each atom along direction 2 is -0.000135139
 correction force for each atom along direction 3 is 3.67110e-05

 ><><><><><><><><><><><><><><><><><><><><><><

    TOTAL-FORCE (eV/Angstrom)

 ><><><><><><><><><><><><><><><><><><><><><><

     atom              x              y              z
      Cu1    -0.15572911   -0.055570345     -2.9111347
      Cu2    -0.11028411     +1.3447452    +0.19755744
      Cu3     -1.0513556   -0.071590983   -0.029146198
       N1     +1.3173689     -1.2175838     +2.7427234


 --------------------------------------------
 !FINAL_ETOT_IS -15172.94290313128 eV
 --------------------------------------------






  |CLASS_NAME---------|NAME---------------|TIME(Sec)-----|CALLS----|AVG------|PER%-------
                                      total         465.16        11       42.   1.0e+02%
               Run_lcao           lcao_line         465.14         1   4.7e+02    1.e+02%
            ORB_control      read_orb_first        0.80900         1      0.81      0.17%
          LCAO_Orbitals       Read_Orbitals        0.80900         1      0.81      0.17%
            NOrbital_Lm       extra_uniform        0.60669        59     0.010      0.13%
          Mathzone_Add1       Uni_Deriv_Phi        0.56560        59    0.0096      0.12%
            ORB_control      set_orb_tables         13.796         1       14.       3.0%
         ORB_gen_tables          gen_tables         13.796         1       14.       3.0%
          ORB_table_phi          init_Table         3.5404         1       3.5      0.76%
          ORB_table_phi      cal_ST_Phi12_R         3.4750       428    0.0081      0.75%
         ORB_table_beta     init_Table_Beta         1.3434         1       1.3      0.29%
         ORB_table_beta       VNL_PhiBeta_R         1.3278       196    0.0068      0.29%
        ORB_table_alpha    init_Table_Alpha         8.3698         1       8.4       1.8%
        ORB_table_alpha        S_PhiAlpha_R         8.2783       930    0.0089       1.8%
              Potential            init_pot        0.80445         2      0.40      0.17%
              Potential       set_local_pot        0.78942         2      0.39      0.17%
                    FFT               FFT3D        0.82667       193    0.0043      0.18%
              LOOP_ions            opt_ions         449.31         1   4.5e+02       97.%
              LOOP_elec     solve_elec_stru         301.56         1   3.0e+02       65.%
            Grid_Driver           Find_atom        0.29104     12312   2.4e-05     0.063%
              LOOP_elec       before_solver        0.59615         1      0.60      0.13%
            LCAO_Hamilt   set_lcao_matrices        0.23802         1      0.24     0.051%
        LCAO_gen_fixedHbuild_Nonlocal_mu_new        0.58343         2      0.29      0.13%
            LCAO_Deepks      build_psialpha        0.32140         1      0.32     0.069%
         ORB_gen_tables  snap_psialpha_half        0.29405      2970   9.9e-05     0.063%
              LOOP_elec              solver         300.90         1   3.0e+02       65.%
               ELEC_scf                 scf         300.90         1   3.0e+02       65.%
             H_Ewald_pw       compute_ewald        0.35567         1      0.36     0.076%
          ELEC_cbands_k           cal_bands         272.16        12       23.       59.%
            LCAO_Deepks  cal_projected_DM_k         148.27        14       11.       32.%
        LCAO_DESCRIPTOR       add_v_delta_k         59.102        12       4.9       13.%
                 Gint_k              vlocal         13.007        12       1.1       2.8%
             Efficience              each_k         24.636      1500     0.016       5.3%
             Efficience                 H_k         11.312      1500    0.0075       2.4%
            LCAO_Hamilt        calculate_Hk         11.308      1500    0.0075       2.4%
                 Gint_k        folding_vl_k         4.4201      1500    0.0029      0.95%
                 Gint_k              Distri         2.0534      1500    0.0014      0.44%
               LCAO_nnr      folding_fixedH         6.8699      1500    0.0046       1.5%
             Efficience             diago_k         13.321      1500    0.0089       2.9%
      Diago_LCAO_Matrix          elpa_solve         12.065      1500    0.0080       2.6%
      Diago_LCAO_Matrix    gath_eig_complex        0.48382      1500   0.00032      0.10%
      Local_Orbital_Cha           sum_bands         27.825        12       2.3       6.0%
            LCAO_Charge            cal_dk_k         16.811        12       1.4       3.6%
                 Gint_k           cal_rho_k         7.4748        12      0.62       1.6%
              LOOP_ions        force_stress         131.65         1   1.3e+02       28.%
      Force_Stress_LCAO      getForceStress         131.65         1   1.3e+02       28.%
           Force_LCAO_k            ftable_k         54.208         1       54.       12.%
           Force_LCAO_k          allocate_k        0.90898         1      0.91      0.20%
           Force_LCAO_k      cal_foverlap_k         2.3967         1       2.4      0.52%
           Force_LCAO_k           set_EDM_k         4.6892         2       2.3       1.0%
           Force_LCAO_k      cal_fvl_dphi_k         15.314         1       15.       3.3%
                 Gint_k     svl_k_RealSpace         14.525         1       15.       3.1%
                 Gint_k   evaluate_vl_force         14.038       648     0.022       3.0%
           Force_LCAO_kcal_fvnl_dbeta_k_new         1.1336         1       1.1      0.24%
            LCAO_Deepkscal_f_delta_hf_k_new         16.542         1       17.       3.6%
            LCAO_Deepks          cal_gdmx_k         77.348         1       77.       17.%
 ----------------------------------------------------------------------------------------

 CLASS_NAME---------|NAME---------------|MEMORY(MB)--------
                                         7.231e+04
        ORB_table_phi               Jl(x)          142.9
      ORB_table_alpha           Table_DSR          8.988
  LocalOrbital_Charge      Density_Matrix          4.227
        allocate_pvpR        pvpR_reduced          4.227
        ORB_table_phi         Table_SR&TR          3.674
        init_meshball        meshball_pos          1.319
       ORB_table_beta            Table_NR          1.171
        Grid_Meshcell        index2normal          1.048
        Grid_Meshcell         index2ucell          1.048
             force_lo                  dS          1.015
             force_lo               dTVNL          1.015
 ----------------------------------------------------------

 Start  Time  : Wed Apr  6 22:37:58 2022
 Finish Time  : Wed Apr  6 22:45:43 2022
 Total  Time  : 0 h 7 mins 45 secs 
