 *********************************************************
 *                                                       *
 *                  WELCOME TO ABACUS                    *
 *                                                       *
 *            'Atomic-orbital Based Ab-initio            *
 *                  Computation at UStc'                 *
 *                                                       *
 *          Website: http://abacus.ustc.edu.cn/          *
 *                                                       *
 *********************************************************
 Wed Apr  6 22:28:05 2022
 MAKE THE DIR         : OUT.ABACUS/
 dft_functional readin is: pbe
 dft_functional in pseudopot file is: PBE
In Pseudopot_upf::read_pseudo_header : input xc functional does not match that in pseudopot file
Please make sure this is what you need
 dft_functional readin is: pbe
 dft_functional in pseudopot file is: PBE
In Pseudopot_upf::read_pseudo_header : input xc functional does not match that in pseudopot file
Please make sure this is what you need
 DONE(0.042833   SEC) : SETUP UNITCELL
 DONE(0.0445573  SEC) : INIT K-POINTS
 ---------------------------------------------------------
 Self-consistent calculations for electrons
 ---------------------------------------------------------
 SPIN    KPOINTS         PROCESSORS  NBASE       
 1       64              16          160         
 ---------------------------------------------------------
 Use Systematically Improvable Atomic bases
 ---------------------------------------------------------
 ELEMENT ORBITALS        NBASE       NATOM       XC          
 Cu      4s2p2d1f-9au    27          4           PBE
 Br      2s2p1d-8au      13          4           PBE
 ---------------------------------------------------------
 Initial plane wave basis and FFT box
 ---------------------------------------------------------
 SET NONLOCAL PSEUDOPOTENTIAL PROJECTORS
 SET NONLOCAL PSEUDOPOTENTIAL PROJECTORS
 DONE(14.9478    SEC) : INIT PLANEWAVE
 UNIFORM GRID DIM     : 54 * 54 * 54
 UNIFORM GRID DIM(BIG): 27 * 27 * 27
 DONE(14.951     SEC) : INIT CHARGE
 DONE(14.9513    SEC) : INIT POTENTIAL
 START POTENTIAL      : atomic
 -------------------------------------------
 SELF-CONSISTENT : 
 -------------------------------------------
 ITER   ETOT(eV)       EDIFF(eV)      DRHO2      TIME(s)    
 HOMO index is 0
 HOMO energy 0.399516
 LUMO index is 660679904
 LUMO energy 0.528484
 GE1    -2.133818e+04  0.000000e+00   4.721e-02  5.602e+00  
 HOMO index is 0
 HOMO energy 5.105e-01
 LUMO index is 660679904
 LUMO energy 5.931e-01
 GE2    -2.134100e+04  -2.814410e+00  1.959e-02  1.046e+01  
 HOMO index is 0
 HOMO energy 4.947e-01
 LUMO index is 660679904
 LUMO energy 5.931e-01
 GE3    -2.134121e+04  -2.079766e-01  1.222e-02  1.033e+01  
 HOMO index is 0
 HOMO energy 5.133e-01
 LUMO index is 660679904
 LUMO energy 6.020e-01
 GE4    -2.134120e+04  8.932654e-03   1.926e-03  1.015e+01  
 HOMO index is 0
 HOMO energy 5.090e-01
 LUMO index is 660679904
 LUMO energy 6.011e-01
 GE5    -2.134120e+04  -6.960030e-03  7.404e-04  1.021e+01  
 HOMO index is 0
 HOMO energy 5.072e-01
 LUMO index is 660679904
 LUMO energy 6.006e-01
 GE6    -2.134120e+04  8.007750e-04   3.963e-04  1.018e+01  
 HOMO index is 0
 HOMO energy 5.084e-01
 LUMO index is 660679904
 LUMO energy 6.008e-01
 GE7    -2.134120e+04  -3.170188e-04  1.209e-04  1.014e+01  
 HOMO index is 0
 HOMO energy 5.081e-01
 LUMO index is 660679904
 LUMO energy 6.007e-01
 GE8    -2.134120e+04  -3.620839e-04  1.717e-05  1.038e+01  
 HOMO index is 0
 HOMO energy 5.080e-01
 LUMO index is 660679904
 LUMO energy 6.007e-01
 GE9    -2.134120e+04  1.376026e-04   5.897e-06  1.029e+01  
 HOMO index is 0
 HOMO energy 5.080e-01
 LUMO index is 660679904
 LUMO energy 6.007e-01
 GE10   -2.134120e+04  -5.539604e-06  2.238e-06  1.012e+01  
 HOMO index is 0
 HOMO energy 5.080e-01
 LUMO index is 660679904
 LUMO energy 6.007e-01
 GE11   -2.134120e+04  2.736446e-06   3.487e-07  1.025e+01  
E_delta_band = 5.83313860e-03 Ry = 7.93639222e-02 eV
E_delta_NN= -4.28338448e-03 Ry = -5.82784356e-02 eV

  |CLASS_NAME---------|NAME---------------|TIME(Sec)-----|CALLS----|AVG------|PER%-------
                       total               185.38         11        17        1e+02     %
   Run_lcao            lcao_line           185.36         1         1.9e+02   1e+02     %
   ORB_control         read_orb_first      0.72304        1         0.72      0.39      %
   LCAO_Orbitals       Read_Orbitals       0.72304        1         0.72      0.39      %
   NOrbital_Lm         extra_uniform       0.54009        59        0.0092    0.29      %
   Mathzone_Add1       Uni_Deriv_Phi       0.50106        59        0.0085    0.27      %
   ORB_control         set_orb_tables      14.082         1         14        7.6       %
   ORB_gen_tables      gen_tables          14.082         1         14        7.6       %
   ORB_table_phi       init_Table          3.7272         1         3.7       2         %
   ORB_table_phi       cal_ST_Phi12_R      3.6614         428       0.0086    2         %
   ORB_table_beta      init_Table_Beta     1.7924         1         1.8       0.97      %
   ORB_table_beta      VNL_PhiBeta_R       1.7735         248       0.0072    0.96      %
   ORB_table_alpha     init_Table_Alpha    8.0669         1         8.1       4.4       %
   ORB_table_alpha     S_PhiAlpha_R        7.983          930       0.0086    4.3       %
   Potential           init_pot            0.11245        2         0.056     0.061     %
   FFT                 FFT3D               0.14507        180       0.00081   0.078     %
   Potential           v_of_rho            0.12135        13        0.0093    0.065     %
   H_XC_pw             v_xc                0.11819        14        0.0084    0.064     %
   LOOP_ions           opt_ions            170.33         1         1.7e+02   92        %
   LOOP_elec           solve_elec_stru     109.03         1         1.1e+02   59        %
   Grid_Driver         Find_atom           0.19497        11888     1.6e-05   0.11      %
   LOOP_elec           before_solver       0.49456        1         0.49      0.27      %
   LCAO_Hamilt         set_lcao_matrices   0.16872        1         0.17      0.091     %
   LCAO_gen_fixedH     build_Nonlocal_mu_new0.38236        2         0.19      0.21      %
   LCAO_Deepks         build_psialpha      0.28749        1         0.29      0.16      %
   ORB_gen_tables      snap_psialpha_half  0.26204        2878      9.1e-05   0.14      %
   LOOP_elec           solver              108.46         1         1.1e+02   59        %
   ELEC_scf            scf                 108.46         1         1.1e+02   59        %
   H_Ewald_pw          compute_ewald       0.27531        1         0.28      0.15      %
   ELEC_cbands_k       cal_bands           93.441         11        8.5       50        %
   LCAO_Deepks         cal_projected_DM_k  73.058         13        5.6       39        %
   LCAO_DESCRIPTOR     add_v_delta_k       23.563         11        2.1       13        %
   Gint_k              vlocal              6.46           11        0.59      3.5       %
   Efficience          each_k              14.25          704       0.02      7.7       %
   Efficience          H_k                 6.1783         704       0.0088    3.3       %
   LCAO_Hamilt         calculate_Hk        6.176          704       0.0088    3.3       %
   Gint_k              folding_vl_k        2.7826         704       0.004     1.5       %
   Gint_k              Distri              1.7096         704       0.0024    0.92      %
   LCAO_nnr            folding_fixedH      3.3742         704       0.0048    1.8       %
   Efficience          diago_k             8.0705         704       0.011     4.4       %
   Diago_LCAO_Matrix   elpa_solve          7.6805         704       0.011     4.1       %
   Diago_LCAO_Matrix   gath_eig_complex    0.29509        704       0.00042   0.16      %
   Local_Orbital_Cha   sum_bands           14.497         11        1.3       7.8       %
   LCAO_Charge         cal_dk_k            9.586          11        0.87      5.2       %
   Gint_k              cal_rho_k           4.4029         11        0.4       2.4       %
   LOOP_ions           force_stress        56.214         1         56        30        %
   Force_Stress_LCAO   getForceStress      56.214         1         56        30        %
   Force_LCAO_k        ftable_k            23.218         1         23        13        %
   Force_LCAO_k        allocate_k          0.63203        1         0.63      0.34      %
   Force_LCAO_k        cal_foverlap_k      1.8071         1         1.8       0.97      %
   Force_LCAO_k        set_EDM_k           3.5461         2         1.8       1.9       %
   Force_LCAO_k        cal_fvl_dphi_k      7.8149         1         7.8       4.2       %
   Gint_k              svl_k_RealSpace     7.7269         1         7.7       4.2       %
   Gint_k              evaluate_vl_force   7.2026         1458      0.0049    3.9       %
   Force_LCAO_k        cal_fvnl_dbeta_k_new0.75586        1         0.76      0.41      %
   LCAO_Deepks         cal_f_delta_hf_k_new5.3777         1         5.4       2.9       %
   LCAO_Deepks         cal_gdmx_k          32.735         1         33        18        %
 ----------------------------------------------------------------------------------------

 START  Time  : Wed Apr  6 22:28:05 2022
 FINISH Time  : Wed Apr  6 22:31:10 2022
 TOTAL  Time  : 1.8e+02
 SEE INFORMATION IN : OUT.ABACUS/
