                                                                                     
                             WELCOME TO ABACUS                                       
                                                                                     
               'Atomic-orbital Based Ab-initio Computation at UStc'                  
                                                                                     
                     Website: http://abacus.ustc.edu.cn/                             
                                                                                     
    Version: Parallel, in development
    Processor Number is 16
    Start Time is Wed Apr  6 22:27:46 2022
                                                                                     
 ------------------------------------------------------------------------------------

 READING GENERAL INFORMATION
                           global_out_dir = OUT.ABACUS/
                           global_in_card = INPUT
                               pseudo_dir = 
                              orbital_dir = 
                              pseudo_type = auto
                                    DRANK = 1
                                    DSIZE = 16
                                   DCOLOR = 1
                                    GRANK = 1
                                    GSIZE = 1




 >>>>>>>>>>>>>>>>>>>>>>>>>>>>>>>>>>>>>>>>>>>>>>>>>>>>>>>>>>>>>>>>>>>>>>
 |                                                                    |
 | Reading atom information in unitcell:                              |
 | From the input file and the structure file we know the number of   |
 | different elments in this unitcell, then we list the detail        |
 | information for each element, especially the zeta and polar atomic |
 | orbital number for each element. The total atom number is counted. |
 | We calculate the nearest atom distance for each atom and show the  |
 | Cartesian and Direct coordinates for each atom. We list the file   |
 | address for atomic orbitals. The volume and the lattice vectors    |
 | in real and reciprocal space is also shown.                        |
 |                                                                    |
 <<<<<<<<<<<<<<<<<<<<<<<<<<<<<<<<<<<<<<<<<<<<<<<<<<<<<<<<<<<<<<<<<<<<<<




 READING UNITCELL INFORMATION
                                    ntype = 3
                 atom label for species 1 = Cu
                 atom label for species 2 = H
                 atom label for species 3 = O
                  lattice constant (Bohr) = 1.88973
              lattice constant (Angstrom) = 1

 READING ATOM TYPE 1
                               atom label = Cu
                      L=0, number of zeta = 4
                      L=1, number of zeta = 2
                      L=2, number of zeta = 2
                      L=3, number of zeta = 1
             number of atom for this type = 2
                      start magnetization = FALSE
                      start magnetization = FALSE

 READING ATOM TYPE 2
                               atom label = H
                      L=0, number of zeta = 2
                      L=1, number of zeta = 1
             number of atom for this type = 2
                      start magnetization = FALSE
                      start magnetization = FALSE

 READING ATOM TYPE 3
                               atom label = O
                      L=0, number of zeta = 2
                      L=1, number of zeta = 2
                      L=2, number of zeta = 1
             number of atom for this type = 4
                      start magnetization = FALSE
                      start magnetization = FALSE
                      start magnetization = FALSE
                      start magnetization = FALSE

                        TOTAL ATOM NUMBER = 8

 CARTESIAN COORDINATES ( UNIT = 1.88973 Bohr ).
         atom                   x                   y                   z                 mag                  vx                  vy                  vz
     tauc_Cu1         1.501251708          3.48650984         1.351531188                   0                   0                   0                   0
     tauc_Cu2        2.7490570245         1.344728798       4.56153180599                   0                   0                   0                   0
      tauc_H1     0.0466010030009         1.482077549         1.493564347                   0                   0                   0                   0
      tauc_H2         1.326971754         3.609009185         4.455773095                   0                   0                   0                   0
      tauc_O1         1.454542969      0.165634498001         3.990355862                   0                   0                   0                   0
      tauc_O2        2.7735869535         2.465319676         1.992575683                   0                   0                   0                   0
      tauc_O3         1.401943525         2.216287365         5.118713582                   0                   0                   0                   0
      tauc_O4        2.7847555175     0.0502457970028      0.930008258997                   0                   0                   0                   0


 READING ORBITAL FILE NAMES FOR LCAO
 orbital file: /root/Orb_SG15_DZP_E60_Standard_v1.0/Cu_gga_9au_60Ry_4s2p2d1f.orb
 orbital file: /root/Orb_SG15_DZP_E60_Standard_v1.0/H_gga_8au_60Ry_2s1p.orb
 orbital file: /root/Orb_SG15_DZP_E60_Standard_v1.0/O_gga_7au_60Ry_2s2p1d.orb

                          Volume (Bohr^3) = 495.372622699
                             Volume (A^3) = 73.4065613975

 Lattice vectors: (Cartesian coordinate: in unit of a_0)
        +2.7887330055                  +0                  +0
                   +0       +4.4110479355                  +0
                   +0                  +0       +5.9674210548
 Reciprocal vectors: (Cartesian coordinate: in unit of 2 pi/a_0)
      +0.358585780004                  +0                  +0
                   +0      +0.22670349872                  +0
                   +0                  -0     +0.167576578025




 >>>>>>>>>>>>>>>>>>>>>>>>>>>>>>>>>>>>>>>>>>>>>>>>>>>>>>>>>>>>>>>>>>>>>>
 |                                                                    |
 | Reading pseudopotentials files:                                    |
 | The pseudopotential file is in UPF format. The 'NC' indicates that |
 | the type of pseudopotential is 'norm conserving'. Functional of    |
 | exchange and correlation is decided by 4 given parameters in UPF   |
 | file.  We also read in the 'core correction' if there exists.      |
 | Also we can read the valence electrons number and the maximal      |
 | angular momentum used in this pseudopotential. We also read in the |
 | trail wave function, trail atomic density and local-pseudopotential|
 | on logrithmic grid. The non-local pseudopotential projector is also|
 | read in if there is any.                                           |
 |                                                                    |
 <<<<<<<<<<<<<<<<<<<<<<<<<<<<<<<<<<<<<<<<<<<<<<<<<<<<<<<<<<<<<<<<<<<<<<




                PAO radial cut off (Bohr) = 15

 Read in pseudopotential file is /root/SG15_ONCV_v1.0_upf/Cu_ONCV_PBE-1.0.upf
                     pseudopotential type = NC
                            functional Ex = PBE
                            functional Ec = 
                          functional GCEx = 
                          functional GCEc = 
                 nonlocal core correction = 0
                        valence electrons = 19
                                     lmax = 2
                           number of zeta = 0
                     number of projectors = 6
                           L of projector = 0
                           L of projector = 0
                           L of projector = 1
                           L of projector = 1
                           L of projector = 2
                           L of projector = 2

 XC functional updated to : 
                            functional Ex = PBE
                            functional Ec = 
                          functional GCEx = 
                          functional GCEc = 
                PAO radial cut off (Bohr) = 15

 Read in pseudopotential file is /root/SG15_ONCV_v1.0_upf/H_ONCV_PBE-1.0.upf
                     pseudopotential type = NC
                            functional Ex = PBE
                            functional Ec = 
                          functional GCEx = 
                          functional GCEc = 
                 nonlocal core correction = 0
                        valence electrons = 1
                                     lmax = 0
                           number of zeta = 0
                     number of projectors = 2
                           L of projector = 0
                           L of projector = 0

 XC functional updated to : 
                            functional Ex = PBE
                            functional Ec = 
                          functional GCEx = 
                          functional GCEc = 
                PAO radial cut off (Bohr) = 15

 Read in pseudopotential file is /root/SG15_ONCV_v1.0_upf/O_ONCV_PBE-1.0.upf
                     pseudopotential type = NC
                            functional Ex = PBE
                            functional Ec = 
                          functional GCEx = 
                          functional GCEc = 
                 nonlocal core correction = 0
                        valence electrons = 6
                                     lmax = 1
                           number of zeta = 0
                     number of projectors = 4
                           L of projector = 0
                           L of projector = 0
                           L of projector = 1
                           L of projector = 1

 XC functional updated to : 
                            functional Ex = PBE
                            functional Ec = 
                          functional GCEx = 
                          functional GCEc = 
     initial pseudo atomic orbital number = 0
                                   NLOCAL = 116

 SETUP THE ELECTRONS NUMBER
            electron number of element Cu = 19
      total electron number of element Cu = 38
             electron number of element H = 1
       total electron number of element H = 2
             electron number of element O = 6
       total electron number of element O = 24
                           occupied bands = 32
                                   NLOCAL = 116
                                   NBANDS = 42
                                   NBANDS = 42
 DONE : SETUP UNITCELL Time : 0.0488479578375 (SEC)





 >>>>>>>>>>>>>>>>>>>>>>>>>>>>>>>>>>>>>>>>>>>>>>>>>>>>>>>>>>>>>>>>>>>>>>
 |                                                                    |
 | Setup K-points                                                     |
 | We setup the k-points according to input parameters.               |
 | The reduced k-points are set according to symmetry operations.     |
 | We treat the spin as another set of k-points.                      |
 |                                                                    |
 <<<<<<<<<<<<<<<<<<<<<<<<<<<<<<<<<<<<<<<<<<<<<<<<<<<<<<<<<<<<<<<<<<<<<<





 SETUP K-POINTS
                                    nspin = 1
                   Input type of k points = Monkhorst-Pack(Gamma)
                                   nkstot = 64

  KPOINTS            DIRECT_X            DIRECT_Y            DIRECT_Z              WEIGHT
        1                   0                   0                   0            0.015625
        2                0.25                   0                   0            0.015625
        3                 0.5                   0                   0            0.015625
        4                0.75                   0                   0            0.015625
        5                   0                0.25                   0            0.015625
        6                0.25                0.25                   0            0.015625
        7                 0.5                0.25                   0            0.015625
        8                0.75                0.25                   0            0.015625
        9                   0                 0.5                   0            0.015625
       10                0.25                 0.5                   0            0.015625
       11                 0.5                 0.5                   0            0.015625
       12                0.75                 0.5                   0            0.015625
       13                   0                0.75                   0            0.015625
       14                0.25                0.75                   0            0.015625
       15                 0.5                0.75                   0            0.015625
       16                0.75                0.75                   0            0.015625
       17                   0                   0                0.25            0.015625
       18                0.25                   0                0.25            0.015625
       19                 0.5                   0                0.25            0.015625
       20                0.75                   0                0.25            0.015625
       21                   0                0.25                0.25            0.015625
       22                0.25                0.25                0.25            0.015625
       23                 0.5                0.25                0.25            0.015625
       24                0.75                0.25                0.25            0.015625
       25                   0                 0.5                0.25            0.015625
       26                0.25                 0.5                0.25            0.015625
       27                 0.5                 0.5                0.25            0.015625
       28                0.75                 0.5                0.25            0.015625
       29                   0                0.75                0.25            0.015625
       30                0.25                0.75                0.25            0.015625
       31                 0.5                0.75                0.25            0.015625
       32                0.75                0.75                0.25            0.015625
       33                   0                   0                 0.5            0.015625
       34                0.25                   0                 0.5            0.015625
       35                 0.5                   0                 0.5            0.015625
       36                0.75                   0                 0.5            0.015625
       37                   0                0.25                 0.5            0.015625
       38                0.25                0.25                 0.5            0.015625
       39                 0.5                0.25                 0.5            0.015625
       40                0.75                0.25                 0.5            0.015625
       41                   0                 0.5                 0.5            0.015625
       42                0.25                 0.5                 0.5            0.015625
       43                 0.5                 0.5                 0.5            0.015625
       44                0.75                 0.5                 0.5            0.015625
       45                   0                0.75                 0.5            0.015625
       46                0.25                0.75                 0.5            0.015625
       47                 0.5                0.75                 0.5            0.015625
       48                0.75                0.75                 0.5            0.015625
       49                   0                   0                0.75            0.015625
       50                0.25                   0                0.75            0.015625
       51                 0.5                   0                0.75            0.015625
       52                0.75                   0                0.75            0.015625
       53                   0                0.25                0.75            0.015625
       54                0.25                0.25                0.75            0.015625
       55                 0.5                0.25                0.75            0.015625
       56                0.75                0.25                0.75            0.015625
       57                   0                 0.5                0.75            0.015625
       58                0.25                 0.5                0.75            0.015625
       59                 0.5                 0.5                0.75            0.015625
       60                0.75                 0.5                0.75            0.015625
       61                   0                0.75                0.75            0.015625
       62                0.25                0.75                0.75            0.015625
       63                 0.5                0.75                0.75            0.015625
       64                0.75                0.75                0.75            0.015625

           k-point number in this process = 64
       minimum distributed K point number = 64

  KPOINTS         CARTESIAN_X         CARTESIAN_Y         CARTESIAN_Z              WEIGHT
        1                   0                   0                   0             0.03125
        2      0.089646445001                   0                   0             0.03125
        3      0.179292890002                   0                   0             0.03125
        4      0.268939335003                   0                   0             0.03125
        5                   0       0.05667587468                   0             0.03125
        6      0.089646445001       0.05667587468                   0             0.03125
        7      0.179292890002       0.05667587468                   0             0.03125
        8      0.268939335003       0.05667587468                   0             0.03125
        9                   0       0.11335174936                   0             0.03125
       10      0.089646445001       0.11335174936                   0             0.03125
       11      0.179292890002       0.11335174936                   0             0.03125
       12      0.268939335003       0.11335174936                   0             0.03125
       13                   0       0.17002762404                   0             0.03125
       14      0.089646445001       0.17002762404                   0             0.03125
       15      0.179292890002       0.17002762404                   0             0.03125
       16      0.268939335003       0.17002762404                   0             0.03125
       17                   0                   0     0.0418941445063             0.03125
       18      0.089646445001                   0     0.0418941445063             0.03125
       19      0.179292890002                   0     0.0418941445063             0.03125
       20      0.268939335003                   0     0.0418941445063             0.03125
       21                   0       0.05667587468     0.0418941445063             0.03125
       22      0.089646445001       0.05667587468     0.0418941445063             0.03125
       23      0.179292890002       0.05667587468     0.0418941445063             0.03125
       24      0.268939335003       0.05667587468     0.0418941445063             0.03125
       25                   0       0.11335174936     0.0418941445063             0.03125
       26      0.089646445001       0.11335174936     0.0418941445063             0.03125
       27      0.179292890002       0.11335174936     0.0418941445063             0.03125
       28      0.268939335003       0.11335174936     0.0418941445063             0.03125
       29                   0       0.17002762404     0.0418941445063             0.03125
       30      0.089646445001       0.17002762404     0.0418941445063             0.03125
       31      0.179292890002       0.17002762404     0.0418941445063             0.03125
       32      0.268939335003       0.17002762404     0.0418941445063             0.03125
       33                   0                   0     0.0837882890127             0.03125
       34      0.089646445001                   0     0.0837882890127             0.03125
       35      0.179292890002                   0     0.0837882890127             0.03125
       36      0.268939335003                   0     0.0837882890127             0.03125
       37                   0       0.05667587468     0.0837882890127             0.03125
       38      0.089646445001       0.05667587468     0.0837882890127             0.03125
       39      0.179292890002       0.05667587468     0.0837882890127             0.03125
       40      0.268939335003       0.05667587468     0.0837882890127             0.03125
       41                   0       0.11335174936     0.0837882890127             0.03125
       42      0.089646445001       0.11335174936     0.0837882890127             0.03125
       43      0.179292890002       0.11335174936     0.0837882890127             0.03125
       44      0.268939335003       0.11335174936     0.0837882890127             0.03125
       45                   0       0.17002762404     0.0837882890127             0.03125
       46      0.089646445001       0.17002762404     0.0837882890127             0.03125
       47      0.179292890002       0.17002762404     0.0837882890127             0.03125
       48      0.268939335003       0.17002762404     0.0837882890127             0.03125
       49                   0                   0      0.125682433519             0.03125
       50      0.089646445001                   0      0.125682433519             0.03125
       51      0.179292890002                   0      0.125682433519             0.03125
       52      0.268939335003                   0      0.125682433519             0.03125
       53                   0       0.05667587468      0.125682433519             0.03125
       54      0.089646445001       0.05667587468      0.125682433519             0.03125
       55      0.179292890002       0.05667587468      0.125682433519             0.03125
       56      0.268939335003       0.05667587468      0.125682433519             0.03125
       57                   0       0.11335174936      0.125682433519             0.03125
       58      0.089646445001       0.11335174936      0.125682433519             0.03125
       59      0.179292890002       0.11335174936      0.125682433519             0.03125
       60      0.268939335003       0.11335174936      0.125682433519             0.03125
       61                   0       0.17002762404      0.125682433519             0.03125
       62      0.089646445001       0.17002762404      0.125682433519             0.03125
       63      0.179292890002       0.17002762404      0.125682433519             0.03125
       64      0.268939335003       0.17002762404      0.125682433519             0.03125

  KPOINTS            DIRECT_X            DIRECT_Y            DIRECT_Z              WEIGHT
        1                   0                   0                   0             0.03125
        2                0.25                   0                   0             0.03125
        3                 0.5                   0                   0             0.03125
        4                0.75                   0                   0             0.03125
        5                   0                0.25                   0             0.03125
        6                0.25                0.25                   0             0.03125
        7                 0.5                0.25                   0             0.03125
        8                0.75                0.25                   0             0.03125
        9                   0                 0.5                   0             0.03125
       10                0.25                 0.5                   0             0.03125
       11                 0.5                 0.5                   0             0.03125
       12                0.75                 0.5                   0             0.03125
       13                   0                0.75                   0             0.03125
       14                0.25                0.75                   0             0.03125
       15                 0.5                0.75                   0             0.03125
       16                0.75                0.75                   0             0.03125
       17                   0                   0                0.25             0.03125
       18                0.25                   0                0.25             0.03125
       19                 0.5                   0                0.25             0.03125
       20                0.75                   0                0.25             0.03125
       21                   0                0.25                0.25             0.03125
       22                0.25                0.25                0.25             0.03125
       23                 0.5                0.25                0.25             0.03125
       24                0.75                0.25                0.25             0.03125
       25                   0                 0.5                0.25             0.03125
       26                0.25                 0.5                0.25             0.03125
       27                 0.5                 0.5                0.25             0.03125
       28                0.75                 0.5                0.25             0.03125
       29                   0                0.75                0.25             0.03125
       30                0.25                0.75                0.25             0.03125
       31                 0.5                0.75                0.25             0.03125
       32                0.75                0.75                0.25             0.03125
       33                   0                   0                 0.5             0.03125
       34                0.25                   0                 0.5             0.03125
       35                 0.5                   0                 0.5             0.03125
       36                0.75                   0                 0.5             0.03125
       37                   0                0.25                 0.5             0.03125
       38                0.25                0.25                 0.5             0.03125
       39                 0.5                0.25                 0.5             0.03125
       40                0.75                0.25                 0.5             0.03125
       41                   0                 0.5                 0.5             0.03125
       42                0.25                 0.5                 0.5             0.03125
       43                 0.5                 0.5                 0.5             0.03125
       44                0.75                 0.5                 0.5             0.03125
       45                   0                0.75                 0.5             0.03125
       46                0.25                0.75                 0.5             0.03125
       47                 0.5                0.75                 0.5             0.03125
       48                0.75                0.75                 0.5             0.03125
       49                   0                   0                0.75             0.03125
       50                0.25                   0                0.75             0.03125
       51                 0.5                   0                0.75             0.03125
       52                0.75                   0                0.75             0.03125
       53                   0                0.25                0.75             0.03125
       54                0.25                0.25                0.75             0.03125
       55                 0.5                0.25                0.75             0.03125
       56                0.75                0.25                0.75             0.03125
       57                   0                 0.5                0.75             0.03125
       58                0.25                 0.5                0.75             0.03125
       59                 0.5                 0.5                0.75             0.03125
       60                0.75                 0.5                0.75             0.03125
       61                   0                0.75                0.75             0.03125
       62                0.25                0.75                0.75             0.03125
       63                 0.5                0.75                0.75             0.03125
       64                0.75                0.75                0.75             0.03125
 DONE : INIT K-POINTS Time : 0.0505261524169 (SEC)





 >>>>>>>>>>>>>>>>>>>>>>>>>>>>>>>>>>>>>>>>>>>>>>>>>>>>>>>>>>>>>>>>>>>>>>
 |                                                                    |
 | Setup numerical orbitals:                                          |
 | This part setup: numerical atomic orbitals, non-local projectors   |
 | and neutral potential (1D). The atomic orbitals information        |
 | including the radius, angular momentum and zeta number.            |
 | The neutral potential is the sum of local part of pseudopotential  |
 | and potential given by atomic charge, they will cancel out beyond  |
 | a certain radius cutoff, because the Z/r character.                |
 |                                                                    |
 <<<<<<<<<<<<<<<<<<<<<<<<<<<<<<<<<<<<<<<<<<<<<<<<<<<<<<<<<<<<<<<<<<<<<<





 SETUP ONE DIMENSIONAL ORBITALS/POTENTIAL
                        delta k  (1/Bohr) = 0.01
                        delta r    (Bohr) = 0.01
                        dr_uniform (Bohr) = 0.001
                        rmax       (Bohr) = 30
                                    kmesh = 779
      ORBITAL  L  N      nr      dr    RCUT  CHECK_UNIT    NEW_UNIT
            1  0  0     901    0.01       9           1           1
            2  0  1     901    0.01       9           1           1
            3  0  2     901    0.01       9           1           1
            4  0  3     901    0.01       9           1           1
            5  1  0     901    0.01       9           1           1
            6  1  1     901    0.01       9           1           1
            7  2  0     901    0.01       9           1           1
            8  2  1     901    0.01       9           1           1
            9  3  0     901    0.01       9           1           1
      ORBITAL  L  N      nr      dr    RCUT  CHECK_UNIT    NEW_UNIT
            1  0  0     801    0.01       8           1           1
            2  0  1     801    0.01       8           1           1
            3  1  0     801    0.01       8           1           1
      ORBITAL  L  N      nr      dr    RCUT  CHECK_UNIT    NEW_UNIT
            1  0  0     701    0.01       7           1           1
            2  0  1     701    0.01       7           1           1
            3  1  0     701    0.01       7           1           1
            4  1  1     701    0.01       7           1           1
            5  2  0     701    0.01       7           1           1
   DESCRIPTOR  L  N      nr      dr    RCUT  CHECK_UNIT    NEW_UNIT
            1  0  0     505    0.01    5.04        6.33           1
            2  0  1     505    0.01    5.04        1.58           1
            3  0  2     505    0.01    5.04       0.704           1
            4  0  3     505    0.01    5.04       0.396           1
            5  0  4     505    0.01    5.04       0.253           1
            6  0  5     505    0.01    5.04       0.176           1
            7  0  6     505    0.01    5.04       0.129           1
            8  0  7     505    0.01    5.04       0.099           1
            9  0  8     505    0.01    5.04      0.0782           1
           10  0  9     505    0.01    5.04      0.0633           1
           11  0 10     505    0.01    5.04      0.0524           1
           12  0 11     505    0.01    5.04       0.044           1
           13  0 12     505    0.01    5.04      0.0375           1
           14  0 13     505    0.01    5.04      0.0323           1
           15  0 14     505    0.01    5.04      0.0282           1
           16  1  0     505    0.01    5.04        2.95           1
           17  1  1     505    0.01    5.04        1.03           1
           18  1  2     505    0.01    5.04       0.521           1
           19  1  3     505    0.01    5.04       0.314           1
           20  1  4     505    0.01    5.04        0.21           1
           21  1  5     505    0.01    5.04        0.15           1
           22  1  6     505    0.01    5.04       0.113           1
           23  1  7     505    0.01    5.04      0.0878           1
           24  1  8     505    0.01    5.04      0.0703           1
           25  1  9     505    0.01    5.04      0.0575           1
           26  1 10     505    0.01    5.04      0.0479           1
           27  1 11     505    0.01    5.04      0.0406           1
           28  1 12     505    0.01    5.04      0.0348           1
           29  1 13     505    0.01    5.04      0.0302           1
           30  1 14     505    0.01    5.04      0.0264           1
           31  2  0     505    0.01    5.04        1.71           1
           32  2  1     505    0.01    5.04       0.728           1
           33  2  2     505    0.01    5.04       0.403           1
           34  2  3     505    0.01    5.04       0.256           1
           35  2  4     505    0.01    5.04       0.177           1
           36  2  5     505    0.01    5.04        0.13           1
           37  2  6     505    0.01    5.04      0.0994           1
           38  2  7     505    0.01    5.04      0.0785           1
           39  2  8     505    0.01    5.04      0.0635           1
           40  2  9     505    0.01    5.04      0.0525           1
           41  2 10     505    0.01    5.04      0.0441           1
           42  2 11     505    0.01    5.04      0.0376           1
           43  2 12     505    0.01    5.04      0.0324           1
           44  2 13     505    0.01    5.04      0.0282           1
           45  2 14     505    0.01    5.04      0.0248           1
 max number of nonlocal projetors among all species is 6

 SETUP THE TWO-CENTER INTEGRATION TABLES

 SETUP THE DIVISION OF H/S MATRIX
 divide the H&S matrix using 2D block algorithms.
                                     nb2d = 1
                  trace_loc_row dimension = 116
                  trace_loc_col dimension = 116
                                     nloc = 841
 Initialize the descriptor index for DeePKS (lcao line)
 lmax of descriptor = 2
 nmax of descriptor= 15
 total basis (all atoms) for descriptor= 
 Type 1 number_of_atoms 2
 Type 2 number_of_atoms 2
 Type 3 number_of_atoms 4
 descriptors_per_atom 135
 total_descriptors 1080




 >>>>>>>>>>>>>>>>>>>>>>>>>>>>>>>>>>>>>>>>>>>>>>>>>>>>>>>>>>>>>>>>>>>>>>
 |                                                                    |
 | Setup plane waves:                                                 |
 | Use the energy cutoff and the lattice vectors to generate the      |
 | dimensions of FFT grid. The number of FFT grid on each processor   |
 | is 'nrxx'. The number of plane wave basis in reciprocal space is   |
 | different for charege/potential and wave functions. We also set    |
 | the 'sticks' for the parallel of FFT.                              |
 |                                                                    |
 <<<<<<<<<<<<<<<<<<<<<<<<<<<<<<<<<<<<<<<<<<<<<<<<<<<<<<<<<<<<<<<<<<<<<<





 SETUP THE PLANE WAVE BASIS
     energy cutoff for wavefunc (unit:Ry) = 60
            [fft grid for wave functions] = 30, 48, 60
          [fft grid for charge/potential] = 30, 48, 60
                      [fft grid division] = 2, 2, 2
      [big fft grid for charge/potential] = 15, 24, 30
                                     nbxx = 720
                                     nrxx = 5760

 SETUP PLANE WAVES FOR CHARGE/POTENTIAL
                    number of plane waves = 31043
                         number of sticks = 829

 SETUP PLANE WAVES FOR WAVE FUNCTIONS
                    number of plane waves = 5855
                         number of sticks = 273

 PARALLEL PW FOR CHARGE/POTENTIAL
     PROC   COLUMNS(POT)             PW
        1             52           1946
        2             52           1946
        3             52           1946
        4             52           1946
        5             53           1951
        6             53           1949
        7             53           1949
        8             53           1949
        9             53           1949
       10             52           1946
       11             52           1946
       12             52           1944
       13             52           1944
       14             52           1944
       15             48           1894
       16             48           1894
 --------------- sum -------------------
       16            829          31043

 PARALLEL PW FOR WAVE FUNCTIONS
     PROC     COLUMNS(W)             PW
        1             17            365
        2             17            363
        3             17            365
        4             18            370
        5             17            371
        6             16            368
        7             17            365
        8             16            366
        9             17            363
       10             17            365
       11             18            362
       12             18            362
       13             17            365
       14             17            369
       15             17            363
       16             17            373
 --------------- sum -------------------
       16            273           5855

 SETUP COORDINATES OF PLANE WAVES
              number of total plane waves = 31043

 SETUP COORDINATES OF PLANE WAVES
                            number of |g| = 959
                                  max |g| = 21.7
                                  min |g| = 0
 DONE : INIT PLANEWAVE Time : 17.1 (SEC)

 DONE : INIT CHARGE Time : 17.1 (SEC)

 DONE : INIT POTENTIAL Time : 17.1 (SEC)

                                start_pot = atomic

 -------------------------------------------
 SELF-CONSISTENT
 -------------------------------------------




 >>>>>>>>>>>>>>>>>>>>>>>>>>>>>>>>>>>>>>>>>>>>>>>>>>>>>>>>>>>>>>>>>>>>>>
 |                                                                    |
 | Search adjacent atoms:                                             |
 | Set the adjacent atoms for each atom and set the periodic boundary |
 | condition for the atoms on real space FFT grid. For k-dependent    |
 | algorithm, we also need to set the sparse H and S matrix element   |
 | for each atom.                                                     |
 |                                                                    |
 <<<<<<<<<<<<<<<<<<<<<<<<<<<<<<<<<<<<<<<<<<<<<<<<<<<<<<<<<<<<<<<<<<<<<<





 SETUP SEARCHING RADIUS FOR PROGRAM TO SEARCH ADJACENT ATOMS
                  longest orb rcut (Bohr) = 9
   longest nonlocal projector rcut (Bohr) = 1.96
              searching radius is (Bohr)) = 21.9
         searching radius unit is (Bohr)) = 1.89

 SETUP EXTENDED REAL SPACE GRID FOR GRID INTEGRATION
                        [real space grid] = 30, 48, 60
               [big cell numbers in grid] = 15, 24, 30
           [meshcell numbers in big cell] = 2, 2, 2
                      [extended fft grid] = 26, 26, 24
              [dimension of extened grid] = 68, 77, 79
                            UnitCellTotal = 75
              Atom number in sub-FFT-grid = 8
    Local orbitals number in sub-FFT-grid = 116
                                      nnr = 41363
                                     nnrg = 469156

 SETUP ARRAY FOR EXTRA WAVE FUNCTIONS
                                     daug = 0
                                nnrg_last = 0
                                 nnrg_now = 469156

 LCAO ALGORITHM ------------- ELEC =    1 --------------------------------
 Memory of pvpR : 3.58 MB

 Density error is 0.107158618564

       Energy                       Rydberg                            eV
   E_KohnSham                 -859.38112366                -11692.4800354
     E_Harris                -860.236113699                -11704.1127717
      E_Fermi               +0.479823264927                +6.52833043598

 LCAO ALGORITHM ------------- ELEC =    2 --------------------------------
 Memory of pvpR : 3.5793762207 MB

 Density error is 0.0570455212795

       Energy                       Rydberg                            eV
   E_KohnSham                -859.782804383                 -11697.945182
     E_Harris                -860.210262798                -11703.7610521
      E_Fermi                +0.46491299725                +6.32546583686

 LCAO ALGORITHM ------------- ELEC =    3 --------------------------------
 Memory of pvpR : 3.5793762207 MB

 Density error is 0.0343216087399

       Energy                       Rydberg                            eV
   E_KohnSham                 -859.94590761                -11700.1643153
     E_Harris                -860.007153982                -11700.9976149
      E_Fermi               +0.497487237477                +6.76866111197

 LCAO ALGORITHM ------------- ELEC =    4 --------------------------------
 Memory of pvpR : 3.5793762207 MB

 Density error is 0.0200835362764

       Energy                       Rydberg                            eV
   E_KohnSham                -859.965421361                -11700.4298135
     E_Harris                -860.006225929                -11700.9849881
      E_Fermi               +0.494039071753                +6.72174641047

 LCAO ALGORITHM ------------- ELEC =    5 --------------------------------
 Memory of pvpR : 3.5793762207 MB

 Density error is 0.0131661723308

       Energy                       Rydberg                            eV
   E_KohnSham                -859.986412475                -11700.7154122
     E_Harris                -860.014949041                -11701.1036721
      E_Fermi               +0.493462766957                +6.71390538146

 LCAO ALGORITHM ------------- ELEC =    6 --------------------------------
 Memory of pvpR : 3.5793762207 MB

 Density error is 0.00734015441768

       Energy                       Rydberg                            eV
   E_KohnSham                -859.998420351                -11700.8787878
     E_Harris                -860.001903638                -11700.9261803
      E_Fermi               +0.488514378295                +6.64657909974

 LCAO ALGORITHM ------------- ELEC =    7 --------------------------------
 Memory of pvpR : 3.5793762207 MB

 Density error is 0.00329485984504

       Energy                       Rydberg                            eV
   E_KohnSham                -859.996933172                -11700.8585537
     E_Harris                -859.997893792                -11700.8716236
      E_Fermi               +0.493939466311                +6.72039120891

 LCAO ALGORITHM ------------- ELEC =    8 --------------------------------
 Memory of pvpR : 3.5793762207 MB

 Density error is 0.00161141040766

       Energy                       Rydberg                            eV
   E_KohnSham                -860.000179073                -11700.9027164
     E_Harris                -860.000508538                 -11700.907199
      E_Fermi               +0.493915621021                 +6.7200667771

 LCAO ALGORITHM ------------- ELEC =    9 --------------------------------
 Memory of pvpR : 3.5793762207 MB

 Density error is 0.000730065380954

       Energy                       Rydberg                            eV
   E_KohnSham                -859.999550427                -11700.8941632
     E_Harris                -859.999571854                -11700.8944548
      E_Fermi               +0.494955962065                +6.73422134316

 LCAO ALGORITHM ------------- ELEC =   10 --------------------------------
 Memory of pvpR : 3.5793762207 MB

 Density error is 0.000493967260579

       Energy                       Rydberg                            eV
   E_KohnSham                -859.999743521                -11700.8967904
     E_Harris                -859.999770955                -11700.8971637
      E_Fermi               +0.494453519144                +6.72738525651

 LCAO ALGORITHM ------------- ELEC =   11 --------------------------------
 Memory of pvpR : 3.5793762207 MB

 Density error is 0.000147171921971

       Energy                       Rydberg                            eV
   E_KohnSham                -859.999583717                -11700.8946162
     E_Harris                -859.999584825                -11700.8946313
      E_Fermi               +0.494623482646                +6.72969772859

 LCAO ALGORITHM ------------- ELEC =   12 --------------------------------
 Memory of pvpR : 3.5793762207 MB

 Density error is 5.80015484542e-05

       Energy                       Rydberg                            eV
   E_KohnSham                -859.999639529                -11700.8953755
     E_Harris                -859.999639692                -11700.8953778
      E_Fermi               +0.494623268144                +6.72969481014

 LCAO ALGORITHM ------------- ELEC =   13 --------------------------------
 Memory of pvpR : 3.5793762207 MB

 Density error is 3.26014596092e-05

       Energy                       Rydberg                            eV
   E_KohnSham                -859.999642721                 -11700.895419
     E_Harris                -859.999642754                -11700.8954194
      E_Fermi               +0.494602553975                +6.72941297941

 LCAO ALGORITHM ------------- ELEC =   14 --------------------------------
 Memory of pvpR : 3.5793762207 MB

 Density error is 2.2149901923e-05

       Energy                       Rydberg                            eV
   E_KohnSham                -859.999642139                -11700.8954111
     E_Harris                -859.999642165                -11700.8954114
      E_Fermi               +0.494617111642                +6.72961104663

 LCAO ALGORITHM ------------- ELEC =   15 --------------------------------
 Memory of pvpR : 3.5793762207 MB

 Density error is 6.37575175565e-06

       Energy                       Rydberg                            eV
   E_KohnSham                -859.999640326                -11700.8953864
     E_Harris                 -859.99964033                -11700.8953864
      E_Fermi               +0.494624264687                 +6.7297083688

 LCAO ALGORITHM ------------- ELEC =   16 --------------------------------
 Memory of pvpR : 3.5793762207 MB

 Density error is 4.22407736109e-06

       Energy                       Rydberg                            eV
   E_KohnSham                -859.999642963                -11700.8954223
     E_Harris                -859.999642964                -11700.8954223
      E_Fermi               +0.494622298031                +6.72968161107

 LCAO ALGORITHM ------------- ELEC =   17 --------------------------------
 Memory of pvpR : 3.5793762207 MB

 Density error is 1.4910143174e-06

       Energy                       Rydberg                            eV
   E_KohnSham                -859.999640046                -11700.8953826
     E_Harris                -859.999640046                -11700.8953826
      E_Fermi               +0.494623881076                +6.72970314951

 LCAO ALGORITHM ------------- ELEC =   18 --------------------------------
 Memory of pvpR : 3.5793762207 MB

 Density error is 1.28509174147e-06

       Energy                       Rydberg                            eV
   E_KohnSham                -859.999640638                -11700.8953906
     E_Harris                -859.999640638                -11700.8953906
      E_Fermi               +0.494623493933                +6.72969788215

 LCAO ALGORITHM ------------- ELEC =   19 --------------------------------
 Memory of pvpR : 3.5793762207 MB

 Density error is 4.50575977432e-07

       Energy                       Rydberg                            eV
   E_KohnSham                -859.999640514                -11700.8953889
     E_Harris                -859.999640514                -11700.8953889
       E_band                -86.1183973627                -1171.70090676
   E_one_elec                -665.274165906                -9051.51938852
    E_Hartree                +353.855469065                +4814.45064775
         E_xc                -98.6724477067                -1342.50752442
      E_Ewald                -450.169377346                -6124.86859702
      E_demet             -0.00328229791701              -0.0446579542049
      E_descf                            +0                            +0
     E_efield                            +0                            +0
        E_exx                            +0                            +0
     E_DeePKS              -0.0206990729737                -0.28162533576
      E_Fermi               +0.494623804898                +6.72970211305

 charge density convergence is achieved
 final etot is -11700.8953889 eV

 STATE ENERGY(eV) AND OCCUPATIONS    NSPIN == 1
 1/64 kpoint (Cartesian) = 0 0 0 (253 pws)
       1       -107.663      0.0312500
       2       -107.457      0.0312500
       3       -65.0575      0.0312500
       4       -64.9389      0.0312500
       5       -64.8232      0.0312500
       6       -64.7248      0.0312500
       7       -63.6081      0.0312500
       8       -63.4628      0.0312500
       9       -12.3001      0.0312500
      10       -11.8315      0.0312500
      11       -10.6540      0.0312500
      12       -10.5896      0.0312500
      13       -2.06406      0.0312500
      14       -1.35918      0.0312500
      15      -0.247938      0.0312500
      16      0.0323519      0.0312500
      17        1.38864      0.0312500
      18        2.00350      0.0312500
      19        2.18215      0.0312500
      20        3.11260      0.0312500
      21        3.16547      0.0312500
      22        3.93521      0.0312500
      23        4.04552      0.0312500
      24        4.19822      0.0312500
      25        4.45270      0.0312500
      26        4.49725      0.0312500
      27        4.66131      0.0312500
      28        4.95354      0.0312500
      29        5.25892      0.0312500
      30        5.76784      0.0312500
      31        5.85428      0.0312499
      32        6.54525      0.0259726
      33        8.16642    1.28370e-15
      34        8.26958    1.90820e-17
      35        12.5841        0.00000
      36        15.3922        0.00000
      37        16.4852        0.00000
      38        16.7599        0.00000
      39        18.4622        0.00000
      40        19.1989        0.00000
      41        20.0664        0.00000
      42        21.5870        0.00000

 2/64 kpoint (Cartesian) = 0.0896464 0.00000 0.00000 (257 pws)
       1       -107.674      0.0312500
       2       -107.491      0.0312500
       3       -65.0632      0.0312500
       4       -64.9641      0.0312500
       5       -64.8181      0.0312500
       6       -64.7630      0.0312500
       7       -63.5881      0.0312500
       8       -63.4438      0.0312500
       9       -12.0920      0.0312500
      10       -11.6438      0.0312500
      11       -10.6615      0.0312500
      12       -10.6201      0.0312500
      13       -1.37103      0.0312500
      14      -0.818217      0.0312500
      15       0.260627      0.0312500
      16       0.462681      0.0312500
      17        1.48774      0.0312500
      18        1.88368      0.0312500
      19        2.09131      0.0312500
      20        2.41113      0.0312500
      21        2.60743      0.0312500
      22        2.92371      0.0312500
      23        3.75723      0.0312500
      24        4.00068      0.0312500
      25        4.48872      0.0312500
      26        4.54957      0.0312500
      27        4.65459      0.0312500
      28        4.87991      0.0312500
      29        5.36319      0.0312500
      30        5.54148      0.0312500
      31        6.02151      0.0312464
      32        6.19789      0.0311608
      33        7.26250    8.78544e-05
      34        7.41569    5.68169e-06
      35        13.8000        0.00000
      36        16.0994        0.00000
      37        16.8011        0.00000
      38        17.4504        0.00000
      39        18.2443        0.00000
      40        18.7878        0.00000
      41        19.9547        0.00000
      42        20.7436        0.00000

 3/64 kpoint (Cartesian) = 0.179293 0.00000 0.00000 (253 pws)
       1       -107.696      0.0312500
       2       -107.537      0.0312500
       3       -65.0879      0.0312500
       4       -64.9414      0.0312500
       5       -64.8317      0.0312500
       6       -64.7544      0.0312500
       7       -63.5684      0.0312500
       8       -63.4251      0.0312500
       9       -11.7451      0.0312500
      10       -11.3988      0.0312500
      11       -10.6186      0.0312500
      12       -10.6086      0.0312500
      13      -0.441617      0.0312500
      14      -0.264403      0.0312500
      15      0.0668328      0.0312500
      16       0.324225      0.0312500
      17        1.63152      0.0312500
      18        1.87161      0.0312500
      19        2.09389      0.0312500
      20        2.16923      0.0312500
      21        2.67368      0.0312500
      22        2.75593      0.0312500
      23        3.40094      0.0312500
      24        3.54967      0.0312500
      25        3.73612      0.0312500
      26        3.91719      0.0312500
      27        4.10585      0.0312500
      28        4.33269      0.0312500
      29        5.18201      0.0312500
      30        5.30143      0.0312500
      31        6.29965      0.0308529
      32        6.46563      0.0285948
      33        7.06094     0.00133069
      34        7.35209    1.90320e-05
      35        16.1833        0.00000
      36        16.4352        0.00000
      37        17.0831        0.00000
      38        17.5683        0.00000
      39        18.0432        0.00000
      40        18.1681        0.00000
      41        18.5942        0.00000
      42        19.2912        0.00000

 4/64 kpoint (Cartesian) = 0.268939 0.00000 0.00000 (254 pws)
       1       -107.674      0.0312500
       2       -107.491      0.0312500
       3       -65.0632      0.0312500
       4       -64.9641      0.0312500
       5       -64.8181      0.0312500
       6       -64.7630      0.0312500
       7       -63.5881      0.0312500
       8       -63.4438      0.0312500
       9       -12.0920      0.0312500
      10       -11.6438      0.0312500
      11       -10.6615      0.0312500
      12       -10.6201      0.0312500
      13       -1.37103      0.0312500
      14      -0.818217      0.0312500
      15       0.260627      0.0312500
      16       0.462681      0.0312500
      17        1.48774      0.0312500
      18        1.88368      0.0312500
      19        2.09131      0.0312500
      20        2.41113      0.0312500
      21        2.60743      0.0312500
      22        2.92371      0.0312500
      23        3.75723      0.0312500
      24        4.00068      0.0312500
      25        4.48872      0.0312500
      26        4.54957      0.0312500
      27        4.65459      0.0312500
      28        4.87991      0.0312500
      29        5.36319      0.0312500
      30        5.54148      0.0312500
      31        6.02151      0.0312464
      32        6.19789      0.0311608
      33        7.26250    8.78544e-05
      34        7.41569    5.68169e-06
      35        13.8000        0.00000
      36        16.0994        0.00000
      37        16.8011        0.00000
      38        17.4504        0.00000
      39        18.2443        0.00000
      40        18.7878        0.00000
      41        19.9547        0.00000
      42        20.7436        0.00000

 5/64 kpoint (Cartesian) = 0.00000 0.0566759 0.00000 (249 pws)
       1       -107.655      0.0312500
       2       -107.458      0.0312500
       3       -65.0554      0.0312500
       4       -64.9358      0.0312500
       5       -64.8231      0.0312500
       6       -64.7219      0.0312500
       7       -63.6078      0.0312500
       8       -63.4626      0.0312500
       9       -12.2971      0.0312500
      10       -11.7972      0.0312500
      11       -11.0039      0.0312500
      12       -10.8680      0.0312500
      13       -1.32639      0.0312500
      14       -1.05507      0.0312500
      15      -0.253896      0.0312500
      16      0.0138281      0.0312500
      17       0.887079      0.0312500
      18        1.83607      0.0312500
      19        2.33602      0.0312500
      20        3.04467      0.0312500
      21        3.18945      0.0312500
      22        3.80586      0.0312500
      23        3.93579      0.0312500
      24        4.10168      0.0312500
      25        4.30507      0.0312500
      26        4.39004      0.0312500
      27        4.69986      0.0312500
      28        4.97125      0.0312500
      29        5.54496      0.0312500
      30        5.88609      0.0312498
      31        6.15090      0.0312089
      32        6.44192      0.0291446
      33        8.08911    2.50910e-14
      34        8.18993    5.03070e-16
      35        13.1590        0.00000
      36        15.1348        0.00000
      37        16.1193        0.00000
      38        16.3635        0.00000
      39        17.5496        0.00000
      40        18.5175        0.00000
      41        19.9164        0.00000
      42        21.3210        0.00000

 6/64 kpoint (Cartesian) = 0.0896464 0.0566759 0.00000 (251 pws)
       1       -107.671      0.0312500
       2       -107.495      0.0312500
       3       -65.0604      0.0312500
       4       -64.9656      0.0312500
       5       -64.8188      0.0312500
       6       -64.7618      0.0312500
       7       -63.5884      0.0312500
       8       -63.4445      0.0312500
       9       -12.0934      0.0312500
      10       -11.6028      0.0312500
      11       -10.9648      0.0312500
      12       -10.8576      0.0312500
      13      -0.984770      0.0312500
      14      -0.684631      0.0312500
      15       0.255054      0.0312500
      16       0.652009      0.0312500
      17        1.44095      0.0312500
      18        1.78932      0.0312500
      19        2.01669      0.0312500
      20        2.36218      0.0312500
      21        2.80175      0.0312500
      22        2.91615      0.0312500
      23        3.61805      0.0312500
      24        3.86109      0.0312500
      25        4.47027      0.0312500
      26        4.50552      0.0312500
      27        4.69954      0.0312500
      28        4.83524      0.0312500
      29        5.38872      0.0312500
      30        5.73936      0.0312500
      31        5.94137      0.0312493
      32        6.18699      0.0311751
      33        7.08277     0.00103926
      34        7.33120    2.76827e-05
      35        14.3580        0.00000
      36        16.0591        0.00000
      37        16.6361        0.00000
      38        16.7665        0.00000
      39        17.7056        0.00000
      40        18.5691        0.00000
      41        20.0035        0.00000
      42        21.6170        0.00000

 7/64 kpoint (Cartesian) = 0.179293 0.0566759 0.00000 (253 pws)
       1       -107.700      0.0312500
       2       -107.545      0.0312500
       3       -65.0907      0.0312500
       4       -64.9421      0.0312500
       5       -64.8322      0.0312500
       6       -64.7549      0.0312500
       7       -63.5695      0.0312500
       8       -63.4260      0.0312500
       9       -11.7819      0.0312500
      10       -11.3930      0.0312500
      11       -10.8141      0.0312500
      12       -10.7789      0.0312500
      13      -0.413499      0.0312500
      14      -0.199547      0.0312500
      15       0.169546      0.0312500
      16       0.407819      0.0312500
      17        1.63825      0.0312500
      18        2.04509      0.0312500
      19        2.07015      0.0312500
      20        2.37203      0.0312500
      21        2.55302      0.0312500
      22        2.60932      0.0312500
      23        3.47325      0.0312500
      24        3.58459      0.0312500
      25        3.73708      0.0312500
      26        3.95589      0.0312500
      27        4.16494      0.0312500
      28        4.37505      0.0312500
      29        5.00723      0.0312500
      30        5.08854      0.0312500
      31        6.17013      0.0311932
      32        6.27980      0.0309472
      33        7.10405    0.000808017
      34        7.28764    5.83657e-05
      35        16.1821        0.00000
      36        16.6661        0.00000
      37        16.9922        0.00000
      38        17.2385        0.00000
      39        17.9188        0.00000
      40        18.2602        0.00000
      41        19.1993        0.00000
      42        19.5767        0.00000

 8/64 kpoint (Cartesian) = 0.268939 0.0566759 0.00000 (255 pws)
       1       -107.673      0.0312500
       2       -107.496      0.0312500
       3       -65.0648      0.0312500
       4       -64.9616      0.0312500
       5       -64.8172      0.0312500
       6       -64.7622      0.0312500
       7       -63.5886      0.0312500
       8       -63.4438      0.0312500
       9       -12.0918      0.0312500
      10       -11.6221      0.0312500
      11       -10.9518      0.0312500
      12       -10.8465      0.0312500
      13      -0.991315      0.0312500
      14      -0.669062      0.0312500
      15       0.314458      0.0312500
      16       0.592946      0.0312500
      17        1.47924      0.0312500
      18        1.65862      0.0312500
      19        1.99841      0.0312500
      20        2.22010      0.0312500
      21        2.78097      0.0312500
      22        3.10790      0.0312500
      23        3.72019      0.0312500
      24        3.89563      0.0312500
      25        4.44237      0.0312500
      26        4.51361      0.0312500
      27        4.68668      0.0312500
      28        4.90493      0.0312500
      29        5.37245      0.0312500
      30        5.62264      0.0312500
      31        5.92872      0.0312495
      32        6.17194      0.0311915
      33        7.10765    0.000773480
      34        7.33377    2.64517e-05
      35        14.2844        0.00000
      36        16.0359        0.00000
      37        16.7210        0.00000
      38        16.8593        0.00000
      39        17.7579        0.00000
      40        18.5634        0.00000
      41        20.0218        0.00000
      42        21.5151        0.00000

 9/64 kpoint (Cartesian) = 0.00000 0.113352 0.00000 (245 pws)
       1       -107.648      0.0312500
       2       -107.460      0.0312500
       3       -65.0532      0.0312500
       4       -64.9324      0.0312500
       5       -64.8230      0.0312500
       6       -64.7187      0.0312500
       7       -63.6075      0.0312500
       8       -63.4625      0.0312500
       9       -12.2588      0.0312500
      10       -11.7677      0.0312500
      11       -11.3282      0.0312500
      12       -11.1655      0.0312500
      13      -0.707728      0.0312500
      14      -0.500794      0.0312500
      15     -0.0837051      0.0312500
      16     -0.0281084      0.0312500
      17       0.783681      0.0312500
      18       0.888173      0.0312500
      19        2.61297      0.0312500
      20        2.78103      0.0312500
      21        3.30925      0.0312500
      22        3.72650      0.0312500
      23        3.83057      0.0312500
      24        4.07638      0.0312500
      25        4.12422      0.0312500
      26        4.27935      0.0312500
      27        4.86995      0.0312500
      28        4.98195      0.0312500
      29        5.84496      0.0312499
      30        6.14243      0.0312145
      31        6.20805      0.0311452
      32        6.28163      0.0309394
      33        8.00814    4.76313e-13
      34        8.10726    1.26635e-14
      35        14.1662        0.00000
      36        14.7030        0.00000
      37        15.5869        0.00000
      38        15.8420        0.00000
      39        17.3028        0.00000
      40        17.7782        0.00000
      41        20.1991        0.00000
      42        20.5373        0.00000

 10/64 kpoint (Cartesian) = 0.0896464 0.113352 0.00000 (251 pws)
       1       -107.670      0.0312500
       2       -107.500      0.0312500
       3       -65.0620      0.0312500
       4       -64.9631      0.0312500
       5       -64.8179      0.0312500
       6       -64.7610      0.0312500
       7       -63.5889      0.0312500
       8       -63.4445      0.0312500
       9       -12.0650      0.0312500
      10       -11.5450      0.0312500
      11       -11.2901      0.0312500
      12       -11.0932      0.0312500
      13      -0.693406      0.0312500
      14      -0.494708      0.0312500
      15       0.584591      0.0312500
      16       0.676736      0.0312500
      17        1.37203      0.0312500
      18        1.42805      0.0312500
      19        1.87686      0.0312500
      20        2.32280      0.0312500
      21        2.95478      0.0312500
      22        3.11062      0.0312500
      23        3.55728      0.0312500
      24        3.72275      0.0312500
      25        4.41755      0.0312500
      26        4.45774      0.0312500
      27        4.78884      0.0312500
      28        5.02842      0.0312500
      29        5.29211      0.0312500
      30        5.64780      0.0312500
      31        5.96267      0.0312490
      32        6.11523      0.0312280
      33        7.05594     0.00140594
      34        7.15030    0.000450375
      35        15.1055        0.00000
      36        15.6887        0.00000
      37        16.4005        0.00000
      38        16.6276        0.00000
      39        17.5636        0.00000
      40        17.9165        0.00000
      41        20.5435        0.00000
      42        20.8477        0.00000

 11/64 kpoint (Cartesian) = 0.179293 0.113352 0.00000 (248 pws)
       1       -107.704      0.0312500
       2       -107.552      0.0312500
       3       -65.0935      0.0312500
       4       -64.9427      0.0312500
       5       -64.8327      0.0312500
       6       -64.7554      0.0312500
       7       -63.5705      0.0312500
       8       -63.4268      0.0312500
       9       -11.8168      0.0312500
      10       -11.3481      0.0312500
      11       -11.0456      0.0312500
      12       -10.9473      0.0312500
      13      -0.374871      0.0312500
      14      -0.154311      0.0312500
      15       0.368669      0.0312500
      16       0.527155      0.0312500
      17        1.65241      0.0312500
      18        1.88939      0.0312500
      19        2.15071      0.0312500
      20        2.29036      0.0312500
      21        2.48497      0.0312500
      22        2.60704      0.0312500
      23        3.53810      0.0312500
      24        3.68090      0.0312500
      25        3.76702      0.0312500
      26        4.02039      0.0312500
      27        4.42342      0.0312500
      28        4.55674      0.0312500
      29        4.83395      0.0312500
      30        4.88046      0.0312500
      31        5.81289      0.0312500
      32        5.94188      0.0312493
      33        7.17929    0.000304089
      34        7.28603    5.99466e-05
      35        16.1172        0.00000
      36        16.7924        0.00000
      37        17.0746        0.00000
      38        17.3450        0.00000
      39        18.0583        0.00000
      40        18.7439        0.00000
      41        19.3553        0.00000
      42        19.7515        0.00000

 12/64 kpoint (Cartesian) = 0.268939 0.113352 0.00000 (255 pws)
       1       -107.670      0.0312500
       2       -107.500      0.0312500
       3       -65.0620      0.0312500
       4       -64.9631      0.0312500
       5       -64.8179      0.0312500
       6       -64.7610      0.0312500
       7       -63.5889      0.0312500
       8       -63.4445      0.0312500
       9       -12.0650      0.0312500
      10       -11.5450      0.0312500
      11       -11.2901      0.0312500
      12       -11.0932      0.0312500
      13      -0.693406      0.0312500
      14      -0.494708      0.0312500
      15       0.584591      0.0312500
      16       0.676736      0.0312500
      17        1.37203      0.0312500
      18        1.42805      0.0312500
      19        1.87686      0.0312500
      20        2.32280      0.0312500
      21        2.95478      0.0312500
      22        3.11062      0.0312500
      23        3.55728      0.0312500
      24        3.72275      0.0312500
      25        4.41755      0.0312500
      26        4.45774      0.0312500
      27        4.78884      0.0312500
      28        5.02842      0.0312500
      29        5.29211      0.0312500
      30        5.64780      0.0312500
      31        5.96267      0.0312490
      32        6.11523      0.0312280
      33        7.05594     0.00140594
      34        7.15030    0.000450375
      35        15.1055        0.00000
      36        15.6887        0.00000
      37        16.4005        0.00000
      38        16.6276        0.00000
      39        17.5636        0.00000
      40        17.9165        0.00000
      41        20.5435        0.00000
      42        20.8477        0.00000

 13/64 kpoint (Cartesian) = 0.00000 0.170028 0.00000 (243 pws)
       1       -107.655      0.0312500
       2       -107.458      0.0312500
       3       -65.0554      0.0312500
       4       -64.9358      0.0312500
       5       -64.8231      0.0312500
       6       -64.7219      0.0312500
       7       -63.6078      0.0312500
       8       -63.4626      0.0312500
       9       -12.2971      0.0312500
      10       -11.7972      0.0312500
      11       -11.0039      0.0312500
      12       -10.8680      0.0312500
      13       -1.32639      0.0312500
      14       -1.05507      0.0312500
      15      -0.253896      0.0312500
      16      0.0138281      0.0312500
      17       0.887079      0.0312500
      18        1.83607      0.0312500
      19        2.33602      0.0312500
      20        3.04467      0.0312500
      21        3.18945      0.0312500
      22        3.80586      0.0312500
      23        3.93579      0.0312500
      24        4.10168      0.0312500
      25        4.30507      0.0312500
      26        4.39004      0.0312500
      27        4.69986      0.0312500
      28        4.97125      0.0312500
      29        5.54496      0.0312500
      30        5.88609      0.0312498
      31        6.15090      0.0312089
      32        6.44192      0.0291446
      33        8.08911    2.50910e-14
      34        8.18993    5.03070e-16
      35        13.1590        0.00000
      36        15.1348        0.00000
      37        16.1193        0.00000
      38        16.3635        0.00000
      39        17.5496        0.00000
      40        18.5175        0.00000
      41        19.9164        0.00000
      42        21.3210        0.00000

 14/64 kpoint (Cartesian) = 0.0896464 0.170028 0.00000 (243 pws)
       1       -107.673      0.0312500
       2       -107.496      0.0312500
       3       -65.0648      0.0312500
       4       -64.9616      0.0312500
       5       -64.8172      0.0312500
       6       -64.7622      0.0312500
       7       -63.5886      0.0312500
       8       -63.4438      0.0312500
       9       -12.0918      0.0312500
      10       -11.6221      0.0312500
      11       -10.9518      0.0312500
      12       -10.8465      0.0312500
      13      -0.991315      0.0312500
      14      -0.669062      0.0312500
      15       0.314458      0.0312500
      16       0.592946      0.0312500
      17        1.47924      0.0312500
      18        1.65862      0.0312500
      19        1.99841      0.0312500
      20        2.22010      0.0312500
      21        2.78097      0.0312500
      22        3.10790      0.0312500
      23        3.72019      0.0312500
      24        3.89563      0.0312500
      25        4.44237      0.0312500
      26        4.51361      0.0312500
      27        4.68668      0.0312500
      28        4.90493      0.0312500
      29        5.37245      0.0312500
      30        5.62264      0.0312500
      31        5.92872      0.0312495
      32        6.17194      0.0311915
      33        7.10765    0.000773480
      34        7.33377    2.64517e-05
      35        14.2844        0.00000
      36        16.0359        0.00000
      37        16.7210        0.00000
      38        16.8593        0.00000
      39        17.7579        0.00000
      40        18.5634        0.00000
      41        20.0218        0.00000
      42        21.5151        0.00000

 15/64 kpoint (Cartesian) = 0.179293 0.170028 0.00000 (246 pws)
       1       -107.700      0.0312500
       2       -107.545      0.0312500
       3       -65.0907      0.0312500
       4       -64.9421      0.0312500
       5       -64.8322      0.0312500
       6       -64.7549      0.0312500
       7       -63.5695      0.0312500
       8       -63.4260      0.0312500
       9       -11.7819      0.0312500
      10       -11.3930      0.0312500
      11       -10.8141      0.0312500
      12       -10.7789      0.0312500
      13      -0.413499      0.0312500
      14      -0.199547      0.0312500
      15       0.169546      0.0312500
      16       0.407819      0.0312500
      17        1.63825      0.0312500
      18        2.04509      0.0312500
      19        2.07015      0.0312500
      20        2.37203      0.0312500
      21        2.55302      0.0312500
      22        2.60932      0.0312500
      23        3.47325      0.0312500
      24        3.58459      0.0312500
      25        3.73708      0.0312500
      26        3.95589      0.0312500
      27        4.16494      0.0312500
      28        4.37505      0.0312500
      29        5.00723      0.0312500
      30        5.08854      0.0312500
      31        6.17013      0.0311932
      32        6.27980      0.0309472
      33        7.10405    0.000808017
      34        7.28764    5.83657e-05
      35        16.1821        0.00000
      36        16.6661        0.00000
      37        16.9922        0.00000
      38        17.2385        0.00000
      39        17.9188        0.00000
      40        18.2602        0.00000
      41        19.1993        0.00000
      42        19.5767        0.00000

 16/64 kpoint (Cartesian) = 0.268939 0.170028 0.00000 (251 pws)
       1       -107.671      0.0312500
       2       -107.495      0.0312500
       3       -65.0604      0.0312500
       4       -64.9656      0.0312500
       5       -64.8188      0.0312500
       6       -64.7618      0.0312500
       7       -63.5884      0.0312500
       8       -63.4445      0.0312500
       9       -12.0934      0.0312500
      10       -11.6028      0.0312500
      11       -10.9648      0.0312500
      12       -10.8576      0.0312500
      13      -0.984770      0.0312500
      14      -0.684631      0.0312500
      15       0.255054      0.0312500
      16       0.652009      0.0312500
      17        1.44095      0.0312500
      18        1.78932      0.0312500
      19        2.01669      0.0312500
      20        2.36218      0.0312500
      21        2.80175      0.0312500
      22        2.91615      0.0312500
      23        3.61805      0.0312500
      24        3.86109      0.0312500
      25        4.47027      0.0312500
      26        4.50552      0.0312500
      27        4.69954      0.0312500
      28        4.83524      0.0312500
      29        5.38872      0.0312500
      30        5.73936      0.0312500
      31        5.94137      0.0312493
      32        6.18699      0.0311751
      33        7.08277     0.00103926
      34        7.33120    2.76827e-05
      35        14.3580        0.00000
      36        16.0591        0.00000
      37        16.6361        0.00000
      38        16.7665        0.00000
      39        17.7056        0.00000
      40        18.5691        0.00000
      41        20.0035        0.00000
      42        21.6170        0.00000

 17/64 kpoint (Cartesian) = 0.00000 0.00000 0.0418941 (254 pws)
       1       -107.660      0.0312500
       2       -107.459      0.0312500
       3       -65.0574      0.0312500
       4       -64.9390      0.0312500
       5       -64.8235      0.0312500
       6       -64.7252      0.0312500
       7       -63.6087      0.0312500
       8       -63.4637      0.0312500
       9       -12.2840      0.0312500
      10       -11.8700      0.0312500
      11       -10.6364      0.0312500
      12       -10.5851      0.0312500
      13       -1.98317      0.0312500
      14       -1.43319      0.0312500
      15      -0.247450      0.0312500
      16      0.0313853      0.0312500
      17        1.39268      0.0312500
      18        1.95066      0.0312500
      19        2.43048      0.0312500
      20        3.09803      0.0312500
      21        3.18521      0.0312500
      22        3.87450      0.0312500
      23        4.03750      0.0312500
      24        4.15709      0.0312500
      25        4.34169      0.0312500
      26        4.56342      0.0312500
      27        4.71646      0.0312500
      28        4.92603      0.0312500
      29        5.25597      0.0312500
      30        5.68354      0.0312500
      31        5.89546      0.0312498
      32        6.39805      0.0299255
      33        8.16120    1.57686e-15
      34        8.26952    1.90820e-17
      35        12.8812        0.00000
      36        14.6840        0.00000
      37        16.6826        0.00000
      38        17.2019        0.00000
      39        18.4356        0.00000
      40        19.0168        0.00000
      41        20.0660        0.00000
      42        21.1731        0.00000

 18/64 kpoint (Cartesian) = 0.0896464 0.00000 0.0418941 (255 pws)
       1       -107.672      0.0312500
       2       -107.492      0.0312500
       3       -65.0632      0.0312500
       4       -64.9640      0.0312500
       5       -64.8183      0.0312500
       6       -64.7632      0.0312500
       7       -63.5886      0.0312500
       8       -63.4446      0.0312500
       9       -12.0696      0.0312500
      10       -11.6722      0.0312500
      11       -10.6581      0.0312500
      12       -10.6170      0.0312500
      13       -1.30871      0.0312500
      14      -0.873178      0.0312500
      15       0.278334      0.0312500
      16       0.468389      0.0312500
      17        1.45004      0.0312500
      18        1.91393      0.0312500
      19        2.09877      0.0312500
      20        2.45812      0.0312500
      21        2.58665      0.0312500
      22        2.89237      0.0312500
      23        3.73911      0.0312500
      24        3.97333      0.0312500
      25        4.33780      0.0312500
      26        4.53786      0.0312500
      27        4.85492      0.0312500
[...]
      36        14.9071        0.00000
      37        15.5175        0.00000
      38        15.7525        0.00000
      39        17.3367        0.00000
      40        17.7865        0.00000
      41        20.4570        0.00000
      42        20.7184        0.00000

 58/64 kpoint (Cartesian) = 0.0896464 0.113352 0.125682 (250 pws)
       1       -107.670      0.0312500
       2       -107.500      0.0312500
       3       -65.0620      0.0312500
       4       -64.9630      0.0312500
       5       -64.8180      0.0312500
       6       -64.7611      0.0312500
       7       -63.5894      0.0312500
       8       -63.4453      0.0312500
       9       -12.0511      0.0312500
      10       -11.5204      0.0312500
      11       -11.3053      0.0312500
      12       -11.1195      0.0312500
      13      -0.702372      0.0312500
      14      -0.512144      0.0312500
      15       0.683053      0.0312500
      16       0.755534      0.0312500
      17        1.33517      0.0312500
      18        1.37599      0.0312500
      19        1.86963      0.0312500
      20        2.31722      0.0312500
      21        2.86735      0.0312500
      22        3.07941      0.0312500
      23        3.55319      0.0312500
      24        3.74192      0.0312500
      25        4.40055      0.0312500
      26        4.49244      0.0312500
      27        4.85879      0.0312500
      28        5.04694      0.0312500
      29        5.28363      0.0312500
      30        5.56952      0.0312500
      31        6.03667      0.0312451
      32        6.13679      0.0312178
      33        7.00873     0.00229709
      34        7.11055    0.000746539
      35        15.1866        0.00000
      36        15.7552        0.00000
      37        16.2708        0.00000
      38        16.5710        0.00000
      39        17.6670        0.00000
      40        18.0294        0.00000
      41        20.6071        0.00000
      42        20.8683        0.00000

 59/64 kpoint (Cartesian) = 0.179293 0.113352 0.125682 (247 pws)
       1       -107.704      0.0312500
       2       -107.551      0.0312500
       3       -65.0936      0.0312500
       4       -64.9427      0.0312500
       5       -64.8331      0.0312500
       6       -64.7555      0.0312500
       7       -63.5712      0.0312500
       8       -63.4278      0.0312500
       9       -11.8123      0.0312500
      10       -11.3408      0.0312500
      11       -11.0435      0.0312500
      12       -10.9438      0.0312500
      13      -0.383796      0.0312500
      14      -0.157407      0.0312500
      15       0.305640      0.0312500
      16       0.473783      0.0312500
      17        1.62420      0.0312500
      18        1.82005      0.0312500
      19        2.22838      0.0312500
      20        2.34545      0.0312500
      21        2.50310      0.0312500
      22        2.55532      0.0312500
      23        3.49377      0.0312500
      24        3.68114      0.0312500
      25        3.77798      0.0312500
      26        4.02039      0.0312500
      27        4.36586      0.0312500
      28        4.46196      0.0312500
      29        4.99771      0.0312500
      30        5.10516      0.0312500
      31        5.84768      0.0312499
      32        5.99565      0.0312479
      33        7.09060    0.000948493
      34        7.20654    0.000206322
      35        15.9332        0.00000
      36        16.5298        0.00000
      37        17.1186        0.00000
      38        17.3186        0.00000
      39        18.1286        0.00000
      40        18.7900        0.00000
      41        19.2123        0.00000
      42        19.5888        0.00000

 60/64 kpoint (Cartesian) = 0.268939 0.113352 0.125682 (252 pws)
       1       -107.670      0.0312500
       2       -107.500      0.0312500
       3       -65.0620      0.0312500
       4       -64.9630      0.0312500
       5       -64.8180      0.0312500
       6       -64.7611      0.0312500
       7       -63.5893      0.0312500
       8       -63.4453      0.0312500
       9       -12.0525      0.0312500
      10       -11.5202      0.0312500
      11       -11.3051      0.0312500
      12       -11.1185      0.0312500
      13      -0.704214      0.0312500
      14      -0.503411      0.0312500
      15       0.641480      0.0312500
      16       0.749223      0.0312500
      17        1.37721      0.0312500
      18        1.38817      0.0312500
      19        1.84775      0.0312500
      20        2.33526      0.0312500
      21        2.85803      0.0312500
      22        3.05281      0.0312500
      23        3.57841      0.0312500
      24        3.75105      0.0312500
      25        4.42589      0.0312500
      26        4.49900      0.0312500
      27        4.86097      0.0312500
      28        5.07337      0.0312500
      29        5.25592      0.0312500
      30        5.50235      0.0312500
      31        6.04650      0.0312440
      32        6.14968      0.0312098
      33        7.01874     0.00207896
      34        7.10557    0.000793290
      35        15.2058        0.00000
      36        15.7782        0.00000
      37        16.2785        0.00000
      38        16.4376        0.00000
      39        17.7974        0.00000
      40        18.0399        0.00000
      41        20.5663        0.00000
      42        20.8796        0.00000

 61/64 kpoint (Cartesian) = 0.00000 0.170028 0.125682 (246 pws)
       1       -107.654      0.0312500
       2       -107.459      0.0312500
       3       -65.0553      0.0312500
       4       -64.9357      0.0312500
       5       -64.8232      0.0312500
       6       -64.7222      0.0312500
       7       -63.6082      0.0312500
       8       -63.4635      0.0312500
       9       -12.2832      0.0312500
      10       -11.8266      0.0312500
      11       -10.9757      0.0312500
      12       -10.8896      0.0312500
      13       -1.32426      0.0312500
      14       -1.02003      0.0312500
      15      -0.250254      0.0312500
      16      0.0129287      0.0312500
      17        1.03216      0.0312500
      18        1.78853      0.0312500
      19        2.35299      0.0312500
      20        2.96240      0.0312500
      21        3.22765      0.0312500
      22        3.72051      0.0312500
      23        3.94097      0.0312500
      24        4.13302      0.0312500
      25        4.22218      0.0312500
      26        4.61065      0.0312500
      27        4.70452      0.0312500
      28        4.95125      0.0312500
      29        5.34617      0.0312500
      30        5.96434      0.0312489
      31        6.09282      0.0312354
      32        6.36618      0.0303304
      33        8.08602    2.81667e-14
      34        8.19195    4.64906e-16
      35        13.4099        0.00000
      36        14.8263        0.00000
      37        15.9916        0.00000
      38        16.9926        0.00000
      39        17.4359        0.00000
      40        18.2170        0.00000
      41        20.2307        0.00000
      42        21.5471        0.00000

 62/64 kpoint (Cartesian) = 0.0896464 0.170028 0.125682 (246 pws)
       1       -107.672      0.0312500
       2       -107.497      0.0312500
       3       -65.0648      0.0312500
       4       -64.9616      0.0312500
       5       -64.8174      0.0312500
       6       -64.7623      0.0312500
       7       -63.5889      0.0312500
       8       -63.4446      0.0312500
       9       -12.0744      0.0312500
      10       -11.6419      0.0312500
      11       -10.9288      0.0312500
      12       -10.8669      0.0312500
      13      -0.976347      0.0312500
      14      -0.689740      0.0312500
      15       0.334400      0.0312500
      16       0.605360      0.0312500
      17        1.52029      0.0312500
      18        1.66677      0.0312500
      19        2.02559      0.0312500
      20        2.21519      0.0312500
      21        2.69040      0.0312500
      22        3.06268      0.0312500
      23        3.69472      0.0312500
      24        3.92187      0.0312500
      25        4.39573      0.0312500
      26        4.51109      0.0312500
      27        4.78657      0.0312500
      28        5.01174      0.0312500
      29        5.29432      0.0312500
      30        5.60595      0.0312500
      31        5.86364      0.0312499
      32        6.19300      0.0311675
      33        7.11443    0.000711810
      34        7.31974    3.38398e-05
      35        14.4277        0.00000
      36        15.6401        0.00000
      37        16.6387        0.00000
      38        17.3061        0.00000
      39        17.8281        0.00000
      40        18.3902        0.00000
      41        20.1673        0.00000
      42        21.5200        0.00000

 63/64 kpoint (Cartesian) = 0.179293 0.170028 0.125682 (246 pws)
       1       -107.700      0.0312500
       2       -107.544      0.0312500
       3       -65.0908      0.0312500
       4       -64.9422      0.0312500
       5       -64.8323      0.0312500
       6       -64.7549      0.0312500
       7       -63.5696      0.0312500
       8       -63.4270      0.0312500
       9       -11.7757      0.0312500
      10       -11.3832      0.0312500
      11       -10.8169      0.0312500
      12       -10.7794      0.0312500
      13      -0.452881      0.0312500
      14      -0.226423      0.0312500
      15       0.155416      0.0312500
      16       0.405973      0.0312500
      17        1.65251      0.0312500
      18        1.99040      0.0312500
      19        2.12048      0.0312500
      20        2.32334      0.0312500
      21        2.51615      0.0312500
      22        2.68537      0.0312500
      23        3.46984      0.0312500
      24        3.53675      0.0312500
      25        3.75418      0.0312500
      26        4.01229      0.0312500
      27        4.16843      0.0312500
      28        4.49553      0.0312500
      29        4.75217      0.0312500
      30        5.22052      0.0312500
      31        6.22922      0.0311048
      32        6.30908      0.0307998
      33        7.18497    0.000280882
      34        7.19802    0.000233394
      35        15.9858        0.00000
      36        16.2027        0.00000
      37        17.1392        0.00000
      38        17.5835        0.00000
      39        17.9408        0.00000
      40        18.3771        0.00000
      41        19.0805        0.00000
      42        19.7176        0.00000

 64/64 kpoint (Cartesian) = 0.268939 0.170028 0.125682 (254 pws)
       1       -107.670      0.0312500
       2       -107.495      0.0312500
       3       -65.0604      0.0312500
       4       -64.9655      0.0312500
       5       -64.8191      0.0312500
       6       -64.7620      0.0312500
       7       -63.5888      0.0312500
       8       -63.4454      0.0312500
       9       -12.0762      0.0312500
      10       -11.6213      0.0312500
      11       -10.9480      0.0312500
      12       -10.8735      0.0312500
      13      -0.969928      0.0312500
      14      -0.702485      0.0312500
      15       0.270373      0.0312500
      16       0.646820      0.0312500
      17        1.47161      0.0312500
      18        1.86562      0.0312500
      19        2.01949      0.0312500
      20        2.38036      0.0312500
      21        2.67009      0.0312500
      22        2.86642      0.0312500
      23        3.64047      0.0312500
      24        3.87378      0.0312500
      25        4.36372      0.0312500
      26        4.49525      0.0312500
      27        4.86145      0.0312500
      28        4.94981      0.0312500
      29        5.31682      0.0312500
      30        5.64249      0.0312500
      31        5.93127      0.0312495
      32        6.18783      0.0311741
      33        7.10278    0.000820445
      34        7.31516    3.66316e-05
      35        14.5020        0.00000
      36        15.7050        0.00000
      37        16.4893        0.00000
      38        17.1602        0.00000
      39        17.7640        0.00000
      40        18.5184        0.00000
      41        20.2160        0.00000
      42        21.3176        0.00000

 EFERMI = 6.729702113046868 eV
 OUT.ABACUS/ final etot is -11700.89538894612 eV
 Descriptors have been printed to .//descriptor.dat
 Calculate the energy density matrix with k 
                                      irr = 41363
                                 LNNR.nnr = 41363
                                      irr = 41363
                                 LNNR.nnr = 41363
 Calculate the energy density matrix with k 
                                      irr = 41363
                                 LNNR.nnr = 41363
                                      irr = 41363
                                 LNNR.nnr = 41363
 LNNR.nnrg in cal_force_k = 469156
 F_delta has been printed to .//F_delta.dat
 correction force for each atom along direction 1 is -0.000185068
 correction force for each atom along direction 2 is -0.000100101
 correction force for each atom along direction 3 is 0.000277264

 ><><><><><><><><><><><><><><><><><><><><><><

    TOTAL-FORCE (eV/Angstrom)

 ><><><><><><><><><><><><><><><><><><><><><><

     atom              x              y              z
      Cu1     -4.0294000     -2.0405567     +1.4257805
      Cu2     +2.0674359     -4.6820805     -1.5466979
       H1    -0.52368421     +1.3432375    +0.90820755
       H2    +0.74384173     +1.5141488    -0.27659047
       O1     -1.5132573    -0.31910756    +0.43650929
       O2     +2.0238365     -2.7411629    -0.74373092
       O3     -1.3188874     +3.5821579     +1.1806283
       O4     +2.5501148     +3.3433634     -1.3841063


 --------------------------------------------
 !FINAL_ETOT_IS -11700.89538894612 eV
 --------------------------------------------






  |CLASS_NAME---------|NAME---------------|TIME(Sec)-----|CALLS----|AVG------|PER%-------
                                      total         572.98        11       52.   1.0e+02%
               Run_lcao           lcao_line         572.97         1   5.7e+02    1.e+02%
            ORB_control      read_orb_first        0.81989         1      0.82      0.14%
          LCAO_Orbitals       Read_Orbitals        0.81988         1      0.82      0.14%
            NOrbital_Lm       extra_uniform        0.62397        62     0.010      0.11%
          Mathzone_Add1       Uni_Deriv_Phi        0.58045        62    0.0094      0.10%
            ORB_control      set_orb_tables         16.138         1       16.       2.8%
         ORB_gen_tables          gen_tables         16.138         1       16.       2.8%
          ORB_table_phi          init_Table         4.4327         1       4.4      0.77%
          ORB_table_phi      cal_ST_Phi12_R         4.3598       548    0.0080      0.76%
         ORB_table_beta     init_Table_Beta         1.7533         1       1.8      0.31%
         ORB_table_beta       VNL_PhiBeta_R         1.7326       266    0.0065      0.30%
        ORB_table_alpha    init_Table_Alpha         9.4424         1       9.4       1.6%
        ORB_table_alpha        S_PhiAlpha_R         9.3430      1095    0.0085       1.6%
                    FFT               FFT3D        0.12563       284   0.00044     0.022%
              LOOP_ions            opt_ions         555.78         1   5.6e+02       97.%
              LOOP_elec     solve_elec_stru         418.88         1   4.2e+02       73.%
              LOOP_elec     set_matrix_grid        0.10321         1      0.10     0.018%
            Grid_Driver           Find_atom        0.61211     20336   3.0e-05      0.11%
              LOOP_elec       before_solver        0.77357         1      0.77      0.14%
            LCAO_Hamilt   set_lcao_matrices        0.27166         1      0.27     0.047%
        LCAO_gen_fixedHbuild_Nonlocal_mu_new        0.60398         2      0.30      0.11%
            LCAO_Deepks      build_psialpha        0.47737         1      0.48     0.083%
         ORB_gen_tables  snap_psialpha_half        0.43405      4487   9.7e-05     0.076%
              LOOP_elec              solver         418.01         1   4.2e+02       73.%
               ELEC_scf                 scf         418.01         1   4.2e+02       73.%
             H_Ewald_pw       compute_ewald        0.41550         1      0.42     0.073%
          ELEC_cbands_k           cal_bands         387.10        19       20.       68.%
            LCAO_Deepks  cal_projected_DM_k         214.25        21       10.       37.%
        LCAO_DESCRIPTOR       add_v_delta_k         109.88        19       5.8       19.%
                 Gint_k              vlocal         14.984        19      0.79       2.6%
             Efficience              each_k         41.433      1216     0.034       7.2%
             Efficience                 H_k         31.299      1216     0.026       5.5%
            LCAO_Hamilt        calculate_Hk         31.294      1216     0.026       5.5%
                 Gint_k        folding_vl_k         8.3030      1216    0.0068       1.4%
                 Gint_k              Distri         6.2416      1216    0.0051       1.1%
               LCAO_nnr      folding_fixedH         22.970      1216     0.019       4.0%
             Efficience             diago_k         10.132      1216    0.0083       1.8%
      Diago_LCAO_Matrix          elpa_solve         9.4910      1216    0.0078       1.7%
      Diago_LCAO_Matrix    gath_eig_complex        0.32309      1216   0.00027     0.056%
      Local_Orbital_Cha           sum_bands         30.246        19       1.6       5.3%
            LCAO_Charge            cal_dk_k         16.670        19      0.88       2.9%
                 Gint_k           cal_rho_k         11.623        19      0.61       2.0%
              LOOP_ions        force_stress         124.59         1   1.2e+02       22.%
      Force_Stress_LCAO      getForceStress         124.59         1   1.2e+02       22.%
           Force_LCAO_k            ftable_k         42.368         1       42.       7.4%
           Force_LCAO_k          allocate_k        0.81310         1      0.81      0.14%
           Force_LCAO_k      cal_foverlap_k         1.7128         1       1.7      0.30%
           Force_LCAO_k           set_EDM_k         3.3014         2       1.7      0.58%
             Record_adj              for_2d        0.12072         4     0.030     0.021%
           Force_LCAO_k      cal_fvl_dphi_k         9.4903         1       9.5       1.7%
                 Gint_k     svl_k_RealSpace         9.4170         1       9.4       1.6%
                 Gint_k   evaluate_vl_force         7.7153       720     0.011       1.3%
                 Gint_k       folding_force         1.2664         1       1.3      0.22%
           Force_LCAO_kcal_fvnl_dbeta_k_new         1.8676         1       1.9      0.33%
            LCAO_Deepkscal_f_delta_hf_k_new         13.613         1       14.       2.4%
            LCAO_Deepks          cal_gdmx_k         81.932         1       82.       14.%
 ----------------------------------------------------------------------------------------

 CLASS_NAME---------|NAME---------------|MEMORY(MB)--------
                                         1.217e+05
        ORB_table_phi               Jl(x)          142.9
      ORB_table_alpha           Table_DSR          12.45
        ORB_table_phi         Table_SR&TR          6.432
  LocalOrbital_Charge      Density_Matrix          3.579
        allocate_pvpR        pvpR_reduced          3.579
       ORB_table_beta            Table_NR          2.348
        init_meshball        meshball_pos          1.811
        Grid_Meshcell        index2normal          1.578
        Grid_Meshcell         index2ucell          1.578
 ----------------------------------------------------------

 Start  Time  : Wed Apr  6 22:27:46 2022
 Finish Time  : Wed Apr  6 22:37:19 2022
 Total  Time  : 0 h 9 mins 33 secs 
