                                                                                     
                             WELCOME TO ABACUS                                       
                                                                                     
               'Atomic-orbital Based Ab-initio Computation at UStc'                  
                                                                                     
                     Website: http://abacus.ustc.edu.cn/                             
                                                                                     
    Version: Parallel, in development
    Processor Number is 16
    Start Time is Wed Apr  6 22:29:34 2022
                                                                                     
 ------------------------------------------------------------------------------------

 READING GENERAL INFORMATION
                           global_out_dir = OUT.ABACUS/
                           global_in_card = INPUT
                               pseudo_dir = 
                              orbital_dir = 
                              pseudo_type = auto
                                    DRANK = 1
                                    DSIZE = 16
                                   DCOLOR = 1
                                    GRANK = 1
                                    GSIZE = 1




 >>>>>>>>>>>>>>>>>>>>>>>>>>>>>>>>>>>>>>>>>>>>>>>>>>>>>>>>>>>>>>>>>>>>>>
 |                                                                    |
 | Reading atom information in unitcell:                              |
 | From the input file and the structure file we know the number of   |
 | different elments in this unitcell, then we list the detail        |
 | information for each element, especially the zeta and polar atomic |
 | orbital number for each element. The total atom number is counted. |
 | We calculate the nearest atom distance for each atom and show the  |
 | Cartesian and Direct coordinates for each atom. We list the file   |
 | address for atomic orbitals. The volume and the lattice vectors    |
 | in real and reciprocal space is also shown.                        |
 |                                                                    |
 <<<<<<<<<<<<<<<<<<<<<<<<<<<<<<<<<<<<<<<<<<<<<<<<<<<<<<<<<<<<<<<<<<<<<<




 READING UNITCELL INFORMATION
                                    ntype = 2
                 atom label for species 1 = Li
                 atom label for species 2 = I
                  lattice constant (Bohr) = 1.88973
              lattice constant (Angstrom) = 1

 READING ATOM TYPE 1
                               atom label = Li
                      L=0, number of zeta = 4
                      L=1, number of zeta = 1
             number of atom for this type = 2
                      start magnetization = FALSE
                      start magnetization = FALSE

 READING ATOM TYPE 2
                               atom label = I
                      L=0, number of zeta = 2
                      L=1, number of zeta = 2
                      L=2, number of zeta = 2
             number of atom for this type = 2
                      start magnetization = FALSE
                      start magnetization = FALSE

                        TOTAL ATOM NUMBER = 4

 CARTESIAN COORDINATES ( UNIT = 1.88973 Bohr ).
         atom                   x                   y                   z                 mag                  vx                  vy                  vz
     tauc_Li1          2.42688813          1.32507202          3.71892575                   0                   0                   0                   0
     tauc_Li2    -0.0061826499947          2.54935186       7.36486515999                   0                   0                   0                   0
      tauc_I1          2.34274739           1.3715552          6.42107127                   0                   0                   0                   0
      tauc_I2    -0.0418890700007          2.56793374            2.765108                   0                   0                   0                   0


 READING ORBITAL FILE NAMES FOR LCAO
 orbital file: /root/Orb_SG15_DZP_E60_Standard_v1.0/Li_gga_9au_60Ry_4s1p.orb
 orbital file: /root/Orb_SG15_DZP_E60_Standard_v1.0/I_gga_8au_60Ry_2s2p2d.orb

                          Volume (Bohr^3) = 904.53531486
                             Volume (A^3) = 134.038144387

 Lattice vectors: (Cartesian coordinate: in unit of a_0)
        +4.5660734177                  +0                  +0
        -2.2830367088       +3.9543355752                  +0
                   +0                  +0       +7.4235649109
 Reciprocal vectors: (Cartesian coordinate: in unit of 2 pi/a_0)
       +0.21900655301     +0.126443492334                  -0
                   +0     +0.252886984674                  +0
                   +0                  -0     +0.134706170418




 >>>>>>>>>>>>>>>>>>>>>>>>>>>>>>>>>>>>>>>>>>>>>>>>>>>>>>>>>>>>>>>>>>>>>>
 |                                                                    |
 | Reading pseudopotentials files:                                    |
 | The pseudopotential file is in UPF format. The 'NC' indicates that |
 | the type of pseudopotential is 'norm conserving'. Functional of    |
 | exchange and correlation is decided by 4 given parameters in UPF   |
 | file.  We also read in the 'core correction' if there exists.      |
 | Also we can read the valence electrons number and the maximal      |
 | angular momentum used in this pseudopotential. We also read in the |
 | trail wave function, trail atomic density and local-pseudopotential|
 | on logrithmic grid. The non-local pseudopotential projector is also|
 | read in if there is any.                                           |
 |                                                                    |
 <<<<<<<<<<<<<<<<<<<<<<<<<<<<<<<<<<<<<<<<<<<<<<<<<<<<<<<<<<<<<<<<<<<<<<




                PAO radial cut off (Bohr) = 15

 Read in pseudopotential file is /root/SG15_ONCV_v1.0_upf/Li_ONCV_PBE-1.0.upf
                     pseudopotential type = NC
                            functional Ex = PBE
                            functional Ec = 
                          functional GCEx = 
                          functional GCEc = 
                 nonlocal core correction = 0
                        valence electrons = 3
                                     lmax = 1
                           number of zeta = 0
                     number of projectors = 4
                           L of projector = 0
                           L of projector = 0
                           L of projector = 1
                           L of projector = 1

 XC functional updated to : 
                            functional Ex = PBE
                            functional Ec = 
                          functional GCEx = 
                          functional GCEc = 
                PAO radial cut off (Bohr) = 15

 Read in pseudopotential file is /root/SG15_ONCV_v1.0_upf/I_ONCV_PBE-1.0.upf
                     pseudopotential type = NC
                            functional Ex = PBE
                            functional Ec = 
                          functional GCEx = 
                          functional GCEc = 
                 nonlocal core correction = 0
                        valence electrons = 17
                                     lmax = 2
                           number of zeta = 0
                     number of projectors = 6
                           L of projector = 0
                           L of projector = 0
                           L of projector = 1
                           L of projector = 1
                           L of projector = 2
                           L of projector = 2

 XC functional updated to : 
                            functional Ex = PBE
                            functional Ec = 
                          functional GCEx = 
                          functional GCEc = 
     initial pseudo atomic orbital number = 0
                                   NLOCAL = 50

 SETUP THE ELECTRONS NUMBER
            electron number of element Li = 3
      total electron number of element Li = 6
             electron number of element I = 17
       total electron number of element I = 34
                           occupied bands = 20
                                   NLOCAL = 50
                                   NBANDS = 30
                                   NBANDS = 30
 DONE : SETUP UNITCELL Time : 0.0397962745762 (SEC)





 >>>>>>>>>>>>>>>>>>>>>>>>>>>>>>>>>>>>>>>>>>>>>>>>>>>>>>>>>>>>>>>>>>>>>>
 |                                                                    |
 | Setup K-points                                                     |
 | We setup the k-points according to input parameters.               |
 | The reduced k-points are set according to symmetry operations.     |
 | We treat the spin as another set of k-points.                      |
 |                                                                    |
 <<<<<<<<<<<<<<<<<<<<<<<<<<<<<<<<<<<<<<<<<<<<<<<<<<<<<<<<<<<<<<<<<<<<<<





 SETUP K-POINTS
                                    nspin = 1
                   Input type of k points = Monkhorst-Pack(Gamma)
                                   nkstot = 64

  KPOINTS            DIRECT_X            DIRECT_Y            DIRECT_Z              WEIGHT
        1                   0                   0                   0            0.015625
        2                0.25                   0                   0            0.015625
        3                 0.5                   0                   0            0.015625
        4                0.75                   0                   0            0.015625
        5                   0                0.25                   0            0.015625
        6                0.25                0.25                   0            0.015625
        7                 0.5                0.25                   0            0.015625
        8                0.75                0.25                   0            0.015625
        9                   0                 0.5                   0            0.015625
       10                0.25                 0.5                   0            0.015625
       11                 0.5                 0.5                   0            0.015625
       12                0.75                 0.5                   0            0.015625
       13                   0                0.75                   0            0.015625
       14                0.25                0.75                   0            0.015625
       15                 0.5                0.75                   0            0.015625
       16                0.75                0.75                   0            0.015625
       17                   0                   0                0.25            0.015625
       18                0.25                   0                0.25            0.015625
       19                 0.5                   0                0.25            0.015625
       20                0.75                   0                0.25            0.015625
       21                   0                0.25                0.25            0.015625
       22                0.25                0.25                0.25            0.015625
       23                 0.5                0.25                0.25            0.015625
       24                0.75                0.25                0.25            0.015625
       25                   0                 0.5                0.25            0.015625
       26                0.25                 0.5                0.25            0.015625
       27                 0.5                 0.5                0.25            0.015625
       28                0.75                 0.5                0.25            0.015625
       29                   0                0.75                0.25            0.015625
       30                0.25                0.75                0.25            0.015625
       31                 0.5                0.75                0.25            0.015625
       32                0.75                0.75                0.25            0.015625
       33                   0                   0                 0.5            0.015625
       34                0.25                   0                 0.5            0.015625
       35                 0.5                   0                 0.5            0.015625
       36                0.75                   0                 0.5            0.015625
       37                   0                0.25                 0.5            0.015625
       38                0.25                0.25                 0.5            0.015625
       39                 0.5                0.25                 0.5            0.015625
       40                0.75                0.25                 0.5            0.015625
       41                   0                 0.5                 0.5            0.015625
       42                0.25                 0.5                 0.5            0.015625
       43                 0.5                 0.5                 0.5            0.015625
       44                0.75                 0.5                 0.5            0.015625
       45                   0                0.75                 0.5            0.015625
       46                0.25                0.75                 0.5            0.015625
       47                 0.5                0.75                 0.5            0.015625
       48                0.75                0.75                 0.5            0.015625
       49                   0                   0                0.75            0.015625
       50                0.25                   0                0.75            0.015625
       51                 0.5                   0                0.75            0.015625
       52                0.75                   0                0.75            0.015625
       53                   0                0.25                0.75            0.015625
       54                0.25                0.25                0.75            0.015625
       55                 0.5                0.25                0.75            0.015625
       56                0.75                0.25                0.75            0.015625
       57                   0                 0.5                0.75            0.015625
       58                0.25                 0.5                0.75            0.015625
       59                 0.5                 0.5                0.75            0.015625
       60                0.75                 0.5                0.75            0.015625
       61                   0                0.75                0.75            0.015625
       62                0.25                0.75                0.75            0.015625
       63                 0.5                0.75                0.75            0.015625
       64                0.75                0.75                0.75            0.015625

           k-point number in this process = 64
       minimum distributed K point number = 64

  KPOINTS         CARTESIAN_X         CARTESIAN_Y         CARTESIAN_Z              WEIGHT
        1                   0                   0                   0             0.03125
        2     0.0547516382524     0.0316108730835                   0             0.03125
        3      0.109503276505      0.063221746167                   0             0.03125
        4      0.164254914757     0.0948326192505                   0             0.03125
        5                   0     0.0632217461684                   0             0.03125
        6     0.0547516382524     0.0948326192519                   0             0.03125
        7      0.109503276505      0.126443492335                   0             0.03125
        8      0.164254914757      0.158054365419                   0             0.03125
        9                   0      0.126443492337                   0             0.03125
       10     0.0547516382524       0.15805436542                   0             0.03125
       11      0.109503276505      0.189665238504                   0             0.03125
       12      0.164254914757      0.221276111587                   0             0.03125
       13                   0      0.189665238505                   0             0.03125
       14     0.0547516382524      0.221276111589                   0             0.03125
       15      0.109503276505      0.252886984672                   0             0.03125
       16      0.164254914757      0.284497857756                   0             0.03125
       17                   0                   0     0.0336765426046             0.03125
       18     0.0547516382524     0.0316108730835     0.0336765426046             0.03125
       19      0.109503276505      0.063221746167     0.0336765426046             0.03125
       20      0.164254914757     0.0948326192505     0.0336765426046             0.03125
       21                   0     0.0632217461684     0.0336765426046             0.03125
       22     0.0547516382524     0.0948326192519     0.0336765426046             0.03125
       23      0.109503276505      0.126443492335     0.0336765426046             0.03125
       24      0.164254914757      0.158054365419     0.0336765426046             0.03125
       25                   0      0.126443492337     0.0336765426046             0.03125
       26     0.0547516382524       0.15805436542     0.0336765426046             0.03125
       27      0.109503276505      0.189665238504     0.0336765426046             0.03125
       28      0.164254914757      0.221276111587     0.0336765426046             0.03125
       29                   0      0.189665238505     0.0336765426046             0.03125
       30     0.0547516382524      0.221276111589     0.0336765426046             0.03125
       31      0.109503276505      0.252886984672     0.0336765426046             0.03125
       32      0.164254914757      0.284497857756     0.0336765426046             0.03125
       33                   0                   0     0.0673530852092             0.03125
       34     0.0547516382524     0.0316108730835     0.0673530852092             0.03125
       35      0.109503276505      0.063221746167     0.0673530852092             0.03125
       36      0.164254914757     0.0948326192505     0.0673530852092             0.03125
       37                   0     0.0632217461684     0.0673530852092             0.03125
       38     0.0547516382524     0.0948326192519     0.0673530852092             0.03125
       39      0.109503276505      0.126443492335     0.0673530852092             0.03125
       40      0.164254914757      0.158054365419     0.0673530852092             0.03125
       41                   0      0.126443492337     0.0673530852092             0.03125
       42     0.0547516382524       0.15805436542     0.0673530852092             0.03125
       43      0.109503276505      0.189665238504     0.0673530852092             0.03125
       44      0.164254914757      0.221276111587     0.0673530852092             0.03125
       45                   0      0.189665238505     0.0673530852092             0.03125
       46     0.0547516382524      0.221276111589     0.0673530852092             0.03125
       47      0.109503276505      0.252886984672     0.0673530852092             0.03125
       48      0.164254914757      0.284497857756     0.0673530852092             0.03125
       49                   0                   0      0.101029627814             0.03125
       50     0.0547516382524     0.0316108730835      0.101029627814             0.03125
       51      0.109503276505      0.063221746167      0.101029627814             0.03125
       52      0.164254914757     0.0948326192505      0.101029627814             0.03125
       53                   0     0.0632217461684      0.101029627814             0.03125
       54     0.0547516382524     0.0948326192519      0.101029627814             0.03125
       55      0.109503276505      0.126443492335      0.101029627814             0.03125
       56      0.164254914757      0.158054365419      0.101029627814             0.03125
       57                   0      0.126443492337      0.101029627814             0.03125
       58     0.0547516382524       0.15805436542      0.101029627814             0.03125
       59      0.109503276505      0.189665238504      0.101029627814             0.03125
       60      0.164254914757      0.221276111587      0.101029627814             0.03125
       61                   0      0.189665238505      0.101029627814             0.03125
       62     0.0547516382524      0.221276111589      0.101029627814             0.03125
       63      0.109503276505      0.252886984672      0.101029627814             0.03125
       64      0.164254914757      0.284497857756      0.101029627814             0.03125

  KPOINTS            DIRECT_X            DIRECT_Y            DIRECT_Z              WEIGHT
        1                   0                   0                   0             0.03125
        2                0.25                   0                   0             0.03125
        3                 0.5                   0                   0             0.03125
        4                0.75                   0                   0             0.03125
        5                   0                0.25                   0             0.03125
        6                0.25                0.25                   0             0.03125
        7                 0.5                0.25                   0             0.03125
        8                0.75                0.25                   0             0.03125
        9                   0                 0.5                   0             0.03125
       10                0.25                 0.5                   0             0.03125
       11                 0.5                 0.5                   0             0.03125
       12                0.75                 0.5                   0             0.03125
       13                   0                0.75                   0             0.03125
       14                0.25                0.75                   0             0.03125
       15                 0.5                0.75                   0             0.03125
       16                0.75                0.75                   0             0.03125
       17                   0                   0                0.25             0.03125
       18                0.25                   0                0.25             0.03125
       19                 0.5                   0                0.25             0.03125
       20                0.75                   0                0.25             0.03125
       21                   0                0.25                0.25             0.03125
       22                0.25                0.25                0.25             0.03125
       23                 0.5                0.25                0.25             0.03125
       24                0.75                0.25                0.25             0.03125
       25                   0                 0.5                0.25             0.03125
       26                0.25                 0.5                0.25             0.03125
       27                 0.5                 0.5                0.25             0.03125
       28                0.75                 0.5                0.25             0.03125
       29                   0                0.75                0.25             0.03125
       30                0.25                0.75                0.25             0.03125
       31                 0.5                0.75                0.25             0.03125
       32                0.75                0.75                0.25             0.03125
       33                   0                   0                 0.5             0.03125
       34                0.25                   0                 0.5             0.03125
       35                 0.5                   0                 0.5             0.03125
       36                0.75                   0                 0.5             0.03125
       37                   0                0.25                 0.5             0.03125
       38                0.25                0.25                 0.5             0.03125
       39                 0.5                0.25                 0.5             0.03125
       40                0.75                0.25                 0.5             0.03125
       41                   0                 0.5                 0.5             0.03125
       42                0.25                 0.5                 0.5             0.03125
       43                 0.5                 0.5                 0.5             0.03125
       44                0.75                 0.5                 0.5             0.03125
       45                   0                0.75                 0.5             0.03125
       46                0.25                0.75                 0.5             0.03125
       47                 0.5                0.75                 0.5             0.03125
       48                0.75                0.75                 0.5             0.03125
       49                   0                   0                0.75             0.03125
       50                0.25                   0                0.75             0.03125
       51                 0.5                   0                0.75             0.03125
       52                0.75                   0                0.75             0.03125
       53                   0                0.25                0.75             0.03125
       54                0.25                0.25                0.75             0.03125
       55                 0.5                0.25                0.75             0.03125
       56                0.75                0.25                0.75             0.03125
       57                   0                 0.5                0.75             0.03125
       58                0.25                 0.5                0.75             0.03125
       59                 0.5                 0.5                0.75             0.03125
       60                0.75                 0.5                0.75             0.03125
       61                   0                0.75                0.75             0.03125
       62                0.25                0.75                0.75             0.03125
       63                 0.5                0.75                0.75             0.03125
       64                0.75                0.75                0.75             0.03125
 DONE : INIT K-POINTS Time : 0.0417769597236 (SEC)





 >>>>>>>>>>>>>>>>>>>>>>>>>>>>>>>>>>>>>>>>>>>>>>>>>>>>>>>>>>>>>>>>>>>>>>
 |                                                                    |
 | Setup numerical orbitals:                                          |
 | This part setup: numerical atomic orbitals, non-local projectors   |
 | and neutral potential (1D). The atomic orbitals information        |
 | including the radius, angular momentum and zeta number.            |
 | The neutral potential is the sum of local part of pseudopotential  |
 | and potential given by atomic charge, they will cancel out beyond  |
 | a certain radius cutoff, because the Z/r character.                |
 |                                                                    |
 <<<<<<<<<<<<<<<<<<<<<<<<<<<<<<<<<<<<<<<<<<<<<<<<<<<<<<<<<<<<<<<<<<<<<<





 SETUP ONE DIMENSIONAL ORBITALS/POTENTIAL
                        delta k  (1/Bohr) = 0.01
                        delta r    (Bohr) = 0.01
                        dr_uniform (Bohr) = 0.001
                        rmax       (Bohr) = 30
                                    kmesh = 779
      ORBITAL  L  N      nr      dr    RCUT  CHECK_UNIT    NEW_UNIT
            1  0  0     901    0.01       9           1           1
            2  0  1     901    0.01       9           1           1
            3  0  2     901    0.01       9           1           1
            4  0  3     901    0.01       9           1           1
            5  1  0     901    0.01       9           1           1
      ORBITAL  L  N      nr      dr    RCUT  CHECK_UNIT    NEW_UNIT
            1  0  0     801    0.01       8           1           1
            2  0  1     801    0.01       8           1           1
            3  1  0     801    0.01       8           1           1
            4  1  1     801    0.01       8           1           1
            5  2  0     801    0.01       8           1           1
            6  2  1     801    0.01       8           1           1
   DESCRIPTOR  L  N      nr      dr    RCUT  CHECK_UNIT    NEW_UNIT
            1  0  0     505    0.01    5.04        6.33           1
            2  0  1     505    0.01    5.04        1.58           1
            3  0  2     505    0.01    5.04       0.704           1
            4  0  3     505    0.01    5.04       0.396           1
            5  0  4     505    0.01    5.04       0.253           1
            6  0  5     505    0.01    5.04       0.176           1
            7  0  6     505    0.01    5.04       0.129           1
            8  0  7     505    0.01    5.04       0.099           1
            9  0  8     505    0.01    5.04      0.0782           1
           10  0  9     505    0.01    5.04      0.0633           1
           11  0 10     505    0.01    5.04      0.0524           1
           12  0 11     505    0.01    5.04       0.044           1
           13  0 12     505    0.01    5.04      0.0375           1
           14  0 13     505    0.01    5.04      0.0323           1
           15  0 14     505    0.01    5.04      0.0282           1
           16  1  0     505    0.01    5.04        2.95           1
           17  1  1     505    0.01    5.04        1.03           1
           18  1  2     505    0.01    5.04       0.521           1
           19  1  3     505    0.01    5.04       0.314           1
           20  1  4     505    0.01    5.04        0.21           1
           21  1  5     505    0.01    5.04        0.15           1
           22  1  6     505    0.01    5.04       0.113           1
           23  1  7     505    0.01    5.04      0.0878           1
           24  1  8     505    0.01    5.04      0.0703           1
           25  1  9     505    0.01    5.04      0.0575           1
           26  1 10     505    0.01    5.04      0.0479           1
           27  1 11     505    0.01    5.04      0.0406           1
           28  1 12     505    0.01    5.04      0.0348           1
           29  1 13     505    0.01    5.04      0.0302           1
           30  1 14     505    0.01    5.04      0.0264           1
           31  2  0     505    0.01    5.04        1.71           1
           32  2  1     505    0.01    5.04       0.728           1
           33  2  2     505    0.01    5.04       0.403           1
           34  2  3     505    0.01    5.04       0.256           1
           35  2  4     505    0.01    5.04       0.177           1
           36  2  5     505    0.01    5.04        0.13           1
           37  2  6     505    0.01    5.04      0.0994           1
           38  2  7     505    0.01    5.04      0.0785           1
           39  2  8     505    0.01    5.04      0.0635           1
           40  2  9     505    0.01    5.04      0.0525           1
           41  2 10     505    0.01    5.04      0.0441           1
           42  2 11     505    0.01    5.04      0.0376           1
           43  2 12     505    0.01    5.04      0.0324           1
           44  2 13     505    0.01    5.04      0.0282           1
           45  2 14     505    0.01    5.04      0.0248           1
 max number of nonlocal projetors among all species is 6

 SETUP THE TWO-CENTER INTEGRATION TABLES

 SETUP THE DIVISION OF H/S MATRIX
 divide the H&S matrix using 2D block algorithms.
                                     nb2d = 1
                  trace_loc_row dimension = 50
                  trace_loc_col dimension = 50
                                     nloc = 169
 Initialize the descriptor index for DeePKS (lcao line)
 lmax of descriptor = 2
 nmax of descriptor= 15
 total basis (all atoms) for descriptor= 
 Type 1 number_of_atoms 2
 Type 2 number_of_atoms 2
 descriptors_per_atom 135
 total_descriptors 540




 >>>>>>>>>>>>>>>>>>>>>>>>>>>>>>>>>>>>>>>>>>>>>>>>>>>>>>>>>>>>>>>>>>>>>>
 |                                                                    |
 | Setup plane waves:                                                 |
 | Use the energy cutoff and the lattice vectors to generate the      |
 | dimensions of FFT grid. The number of FFT grid on each processor   |
 | is 'nrxx'. The number of plane wave basis in reciprocal space is   |
 | different for charege/potential and wave functions. We also set    |
 | the 'sticks' for the parallel of FFT.                              |
 |                                                                    |
 <<<<<<<<<<<<<<<<<<<<<<<<<<<<<<<<<<<<<<<<<<<<<<<<<<<<<<<<<<<<<<<<<<<<<<





 SETUP THE PLANE WAVE BASIS
     energy cutoff for wavefunc (unit:Ry) = 60
            [fft grid for wave functions] = 48, 48, 72
          [fft grid for charge/potential] = 48, 48, 72
                      [fft grid division] = 2, 2, 2
      [big fft grid for charge/potential] = 24, 24, 36
                                     nbxx = 1728
                                     nrxx = 13824

 SETUP PLANE WAVES FOR CHARGE/POTENTIAL
                    number of plane waves = 56841
                         number of sticks = 1237

 SETUP PLANE WAVES FOR WAVE FUNCTIONS
                    number of plane waves = 10719
                         number of sticks = 409

 PARALLEL PW FOR CHARGE/POTENTIAL
     PROC   COLUMNS(POT)             PW
        1             78           3556
        2             78           3556
        3             78           3556
        4             78           3556
        5             78           3556
        6             77           3551
        7             77           3551
        8             77           3551
        9             77           3551
       10             77           3551
       11             77           3551
       12             77           3551
       13             77           3551
       14             77           3551
       15             77           3551
       16             77           3551
 --------------- sum -------------------
       16           1237          56841

 PARALLEL PW FOR WAVE FUNCTIONS
     PROC     COLUMNS(W)             PW
        1             24            666
        2             26            668
        3             25            671
        4             25            675
        5             25            667
        6             26            672
        7             25            669
        8             25            675
        9             27            669
       10             27            667
       11             26            670
       12             25            669
       13             25            669
       14             26            672
       15             26            670
       16             26            670
 --------------- sum -------------------
       16            409          10719

 SETUP COORDINATES OF PLANE WAVES
              number of total plane waves = 56841

 SETUP COORDINATES OF PLANE WAVES
                            number of |g| = 1241
                                  max |g| = 21.7
                                  min |g| = 0
 DONE : INIT PLANEWAVE Time : 9.56 (SEC)

 DONE : INIT CHARGE Time : 9.56 (SEC)

 DONE : INIT POTENTIAL Time : 9.56 (SEC)

                                start_pot = atomic

 -------------------------------------------
 SELF-CONSISTENT
 -------------------------------------------




 >>>>>>>>>>>>>>>>>>>>>>>>>>>>>>>>>>>>>>>>>>>>>>>>>>>>>>>>>>>>>>>>>>>>>>
 |                                                                    |
 | Search adjacent atoms:                                             |
 | Set the adjacent atoms for each atom and set the periodic boundary |
 | condition for the atoms on real space FFT grid. For k-dependent    |
 | algorithm, we also need to set the sparse H and S matrix element   |
 | for each atom.                                                     |
 |                                                                    |
 <<<<<<<<<<<<<<<<<<<<<<<<<<<<<<<<<<<<<<<<<<<<<<<<<<<<<<<<<<<<<<<<<<<<<<





 SETUP SEARCHING RADIUS FOR PROGRAM TO SEARCH ADJACENT ATOMS
                  longest orb rcut (Bohr) = 9
   longest nonlocal projector rcut (Bohr) = 3.28
              searching radius is (Bohr)) = 24.6
         searching radius unit is (Bohr)) = 1.89

 SETUP EXTENDED REAL SPACE GRID FOR GRID INTEGRATION
                        [real space grid] = 48, 48, 72
               [big cell numbers in grid] = 24, 24, 36
           [meshcell numbers in big cell] = 2, 2, 2
                      [extended fft grid] = 29, 29, 24
              [dimension of extened grid] = 83, 83, 85
                            UnitCellTotal = 75
              Atom number in sub-FFT-grid = 4
    Local orbitals number in sub-FFT-grid = 50
                                      nnr = 5405
                                     nnrg = 51522

 SETUP ARRAY FOR EXTRA WAVE FUNCTIONS
                                     daug = 0
                                nnrg_last = 0
                                 nnrg_now = 51522

 LCAO ALGORITHM ------------- ELEC =    1 --------------------------------
 Memory of pvpR : 0.393 MB

 Density error is 0.035048734504

       Energy                       Rydberg                            eV
   E_KohnSham                -433.892160818                -5903.40570466
     E_Harris                -433.911387963                -5903.66730338
      E_Fermi               +0.311456258501                +4.23757979337

 LCAO ALGORITHM ------------- ELEC =    2 --------------------------------
 Memory of pvpR : 0.393081665039 MB

 Density error is 0.0178893161749

       Energy                       Rydberg                            eV
   E_KohnSham                -433.924280402                -5903.84271402
     E_Harris                -433.929478403                -5903.91343645
      E_Fermi               +0.313666701807                +4.26765441744

 LCAO ALGORITHM ------------- ELEC =    3 --------------------------------
 Memory of pvpR : 0.393081665039 MB

 Density error is 0.00393405682479

       Energy                       Rydberg                            eV
   E_KohnSham                -433.928366182                 -5903.8983039
     E_Harris                -433.928475927                -5903.89979706
      E_Fermi               +0.304578587917                +4.14400428447

 LCAO ALGORITHM ------------- ELEC =    4 --------------------------------
 Memory of pvpR : 0.393081665039 MB

 Density error is 0.00111474813659

       Energy                       Rydberg                            eV
   E_KohnSham                -433.928327486                -5903.89777742
     E_Harris                -433.928318753                 -5903.8976586
      E_Fermi               +0.301932696501                +4.10800508492

 LCAO ALGORITHM ------------- ELEC =    5 --------------------------------
 Memory of pvpR : 0.393081665039 MB

 Density error is 0.000395693947344

       Energy                       Rydberg                            eV
   E_KohnSham                -433.928400157                -5903.89876616
     E_Harris                -433.928399822                 -5903.8987616
      E_Fermi               +0.301695024303                +4.10477138877

 LCAO ALGORITHM ------------- ELEC =    6 --------------------------------
 Memory of pvpR : 0.393081665039 MB

 Density error is 1.51271202239e-05

       Energy                       Rydberg                            eV
   E_KohnSham                -433.928411951                -5903.89892663
     E_Harris                -433.928411951                -5903.89892662
      E_Fermi               +0.301766977656                +4.10575036436

 LCAO ALGORITHM ------------- ELEC =    7 --------------------------------
 Memory of pvpR : 0.393081665039 MB

 Density error is 6.93651173024e-06

       Energy                       Rydberg                            eV
   E_KohnSham                -433.928412556                -5903.89893485
     E_Harris                -433.928412555                -5903.89893485
      E_Fermi               +0.301766692683                +4.10574648711

 LCAO ALGORITHM ------------- ELEC =    8 --------------------------------
 Memory of pvpR : 0.393081665039 MB

 Density error is 1.68130040143e-06

       Energy                       Rydberg                            eV
   E_KohnSham                -433.928412491                -5903.89893398
     E_Harris                -433.928412491                -5903.89893398
      E_Fermi               +0.301765326845                +4.10572790392

 LCAO ALGORITHM ------------- ELEC =    9 --------------------------------
 Memory of pvpR : 0.393081665039 MB

 Density error is 2.10463512218e-07

       Energy                       Rydberg                            eV
   E_KohnSham                -433.928412513                -5903.89893426
     E_Harris                -433.928412513                -5903.89893426
       E_band                -73.7578827503                -1003.52747782
   E_one_elec                 -286.62114854                -3899.68078745
    E_Hartree                +136.885665458                +1862.42502475
         E_xc                -46.8992105465                -638.096495134
      E_Ewald                -237.312534588                -3228.80267722
      E_demet            -1.01866199807e-24            -1.38596075099e-23
      E_descf                            +0                            +0
     E_efield                            +0                            +0
        E_exx                            +0                            +0
     E_DeePKS             +0.00489052292371               +0.066538977962
      E_Fermi               +0.301765048045                +4.10572411066

 charge density convergence is achieved
 final etot is -5903.89893426 eV

 STATE ENERGY(eV) AND OCCUPATIONS    NSPIN == 1
 1/64 kpoint (Cartesian) = 0 0 0 (453 pws)
       1       -42.4261      0.0312500
       2       -42.2944      0.0312500
       3       -40.8752      0.0312500
       4       -40.8720      0.0312500
       5       -40.8514      0.0312500
       6       -40.8466      0.0312500
       7       -40.8460      0.0312500
       8       -40.7726      0.0312500
       9       -40.7654      0.0312500
      10       -40.7480      0.0312500
      11       -40.7367      0.0312500
      12       -40.7331      0.0312500
      13       -8.21690      0.0312500
      14       -8.10275      0.0312500
      15       0.182582      0.0312500
      16        1.57931      0.0312500
      17        1.87747      0.0312500
      18        2.03489      0.0312500
      19        2.08740      0.0312500
      20        2.24278      0.0312500
      21        7.09310        0.00000
      22        8.54670        0.00000
      23        9.67309        0.00000
      24        9.82014        0.00000
      25        10.0764        0.00000
      26        10.6490        0.00000
      27        11.4715        0.00000
      28        11.9591        0.00000
      29        16.3697        0.00000
      30        16.6487        0.00000

 2/64 kpoint (Cartesian) = 0.0547516 0.0316109 0.00000 (451 pws)
       1       -42.4289      0.0312500
       2       -42.2973      0.0312500
       3       -40.8755      0.0312500
       4       -40.8706      0.0312500
       5       -40.8511      0.0312500
       6       -40.8459      0.0312500
       7       -40.8452      0.0312500
       8       -40.7717      0.0312500
       9       -40.7645      0.0312500
      10       -40.7475      0.0312500
      11       -40.7366      0.0312500
      12       -40.7325      0.0312500
      13       -8.21803      0.0312500
      14       -8.09807      0.0312500
      15       0.358421      0.0312500
      16        1.00158      0.0312500
      17        1.26944      0.0312500
      18        1.56609      0.0312500
      19        1.84792      0.0312500
      20        2.08246      0.0312500
      21        8.01866        0.00000
      22        9.40970        0.00000
      23        10.1370        0.00000
      24        10.2304        0.00000
      25        10.7399        0.00000
      26        11.3728        0.00000
      27        11.7161        0.00000
      28        11.8930        0.00000
      29        14.4073        0.00000
      30        16.0384        0.00000

 3/64 kpoint (Cartesian) = 0.109503 0.0632217 0.00000 (456 pws)
       1       -42.4299      0.0312500
       2       -42.2984      0.0312500
       3       -40.8754      0.0312500
       4       -40.8697      0.0312500
       5       -40.8508      0.0312500
       6       -40.8455      0.0312500
       7       -40.8441      0.0312500
       8       -40.7707      0.0312500
       9       -40.7638      0.0312500
      10       -40.7469      0.0312500
      11       -40.7365      0.0312500
      12       -40.7319      0.0312500
      13       -8.21866      0.0312500
      14       -8.09379      0.0312500
      15       0.263606      0.0312500
      16       0.697475      0.0312500
      17        1.06102      0.0312500
      18        1.30339      0.0312500
      19        1.36840      0.0312500
      20        1.91036      0.0312500
      21        9.03002        0.00000
      22        9.41332        0.00000
      23        9.80227        0.00000
      24        10.6751        0.00000
      25        11.3386        0.00000
      26        11.7750        0.00000
      27        12.1934        0.00000
      28        13.2925        0.00000
      29        13.8526        0.00000
      30        15.2935        0.00000

 4/64 kpoint (Cartesian) = 0.164255 0.0948326 0.00000 (460 pws)
       1       -42.4289      0.0312500
       2       -42.2973      0.0312500
       3       -40.8755      0.0312500
       4       -40.8706      0.0312500
       5       -40.8511      0.0312500
       6       -40.8459      0.0312500
       7       -40.8452      0.0312500
       8       -40.7717      0.0312500
       9       -40.7645      0.0312500
      10       -40.7475      0.0312500
      11       -40.7366      0.0312500
      12       -40.7325      0.0312500
      13       -8.21803      0.0312500
      14       -8.09807      0.0312500
      15       0.358421      0.0312500
      16        1.00158      0.0312500
      17        1.26944      0.0312500
      18        1.56609      0.0312500
      19        1.84792      0.0312500
      20        2.08246      0.0312500
      21        8.01866        0.00000
      22        9.40970        0.00000
      23        10.1370        0.00000
      24        10.2304        0.00000
      25        10.7399        0.00000
      26        11.3728        0.00000
      27        11.7161        0.00000
      28        11.8930        0.00000
      29        14.4073        0.00000
      30        16.0384        0.00000

 5/64 kpoint (Cartesian) = 0.00000 0.0632217 0.00000 (447 pws)
       1       -42.4285      0.0312500
       2       -42.2970      0.0312500
       3       -40.8752      0.0312500
       4       -40.8721      0.0312500
       5       -40.8500      0.0312500
       6       -40.8461      0.0312500
       7       -40.8446      0.0312500
       8       -40.7722      0.0312500
       9       -40.7653      0.0312500
      10       -40.7468      0.0312500
      11       -40.7359      0.0312500
      12       -40.7327      0.0312500
      13       -8.19836      0.0312500
      14       -8.08325      0.0312500
      15       0.388999      0.0312500
      16        1.06175      0.0312500
      17        1.32496      0.0312500
      18        1.44167      0.0312500
      19        1.86512      0.0312500
      20        1.96682      0.0312500
      21        8.09830        0.00000
      22        9.29440        0.00000
      23        9.71618        0.00000
      24        10.2006        0.00000
      25        10.5892        0.00000
      26        11.0748        0.00000
      27        11.7633        0.00000
      28        12.3471        0.00000
      29        14.4282        0.00000
      30        16.2586        0.00000

 6/64 kpoint (Cartesian) = 0.0547516 0.0948326 0.00000 (449 pws)
       1       -42.4304      0.0312500
       2       -42.2990      0.0312500
       3       -40.8756      0.0312500
       4       -40.8707      0.0312500
       5       -40.8498      0.0312500
       6       -40.8457      0.0312500
       7       -40.8433      0.0312500
       8       -40.7712      0.0312500
       9       -40.7647      0.0312500
      10       -40.7462      0.0312500
      11       -40.7359      0.0312500
      12       -40.7319      0.0312500
      13       -8.19835      0.0312500
      14       -8.07797      0.0312500
      15       0.465554      0.0312500
      16       0.647415      0.0312500
      17        1.03232      0.0312500
      18        1.18384      0.0312500
      19        1.47831      0.0312500
      20        1.57635      0.0312500
      21        9.19572        0.00000
      22        9.50782        0.00000
      23        10.6344        0.00000
      24        10.7319        0.00000
      25        10.9914        0.00000
      26        11.3633        0.00000
      27        11.8114        0.00000
      28        12.9194        0.00000
      29        13.2994        0.00000
      30        15.0958        0.00000

 7/64 kpoint (Cartesian) = 0.109503 0.126443 0.00000 (459 pws)
       1       -42.4307      0.0312500
       2       -42.2990      0.0312500
       3       -40.8755      0.0312500
       4       -40.8698      0.0312500
       5       -40.8500      0.0312500
       6       -40.8455      0.0312500
       7       -40.8446      0.0312500
       8       -40.7713      0.0312500
       9       -40.7649      0.0312500
      10       -40.7463      0.0312500
      11       -40.7357      0.0312500
      12       -40.7317      0.0312500
      13       -8.21116      0.0312500
      14       -8.07352      0.0312500
      15       0.473241      0.0312500
      16       0.637052      0.0312500
      17        1.03463      0.0312500
      18        1.22386      0.0312500
      19        1.50466      0.0312500
      20        1.51875      0.0312500
      21        9.25023        0.00000
      22        9.47682        0.00000
      23        10.6391        0.00000
      24        10.8080        0.00000
      25        11.0473        0.00000
      26        11.4939        0.00000
      27        11.7129        0.00000
      28        12.9257        0.00000
      29        13.2042        0.00000
      30        15.1609        0.00000

 8/64 kpoint (Cartesian) = 0.164255 0.158054 0.00000 (456 pws)
       1       -42.4288      0.0312500
       2       -42.2969      0.0312500
       3       -40.8757      0.0312500
       4       -40.8706      0.0312500
       5       -40.8500      0.0312500
       6       -40.8464      0.0312500
       7       -40.8457      0.0312500
       8       -40.7722      0.0312500
       9       -40.7656      0.0312500
      10       -40.7469      0.0312500
      11       -40.7356      0.0312500
      12       -40.7325      0.0312500
      13       -8.21080      0.0312500
      14       -8.07893      0.0312500
      15       0.381436      0.0312500
      16        1.03296      0.0312500
      17        1.34741      0.0312500
      18        1.47855      0.0312500
      19        1.87531      0.0312500
      20        1.95127      0.0312500
      21        8.08005        0.00000
      22        9.31828        0.00000
      23        9.82010        0.00000
      24        10.2361        0.00000
      25        10.5328        0.00000
      26        11.1546        0.00000
      27        11.7739        0.00000
      28        12.2915        0.00000
      29        14.3237        0.00000
      30        16.3232        0.00000

 9/64 kpoint (Cartesian) = 0.00000 0.126443 0.00000 (452 pws)
       1       -42.4291      0.0312500
       2       -42.2978      0.0312500
       3       -40.8752      0.0312500
       4       -40.8722      0.0312500
       5       -40.8490      0.0312500
       6       -40.8458      0.0312500
       7       -40.8426      0.0312500
       8       -40.7717      0.0312500
       9       -40.7654      0.0312500
      10       -40.7456      0.0312500
      11       -40.7351      0.0312500
      12       -40.7322      0.0312500
      13       -8.17812      0.0312500
      14       -8.06288      0.0312500
      15       0.293700      0.0312500
      16       0.823079      0.0312500
      17       0.919850      0.0312500
      18        1.12579      0.0312500
      19        1.57393      0.0312500
      20        1.76781      0.0312500
      21        8.79598        0.00000
      22        9.01739        0.00000
      23        9.46196        0.00000
      24        10.5855        0.00000
      25        11.4507        0.00000
      26        11.5564        0.00000
      27        12.2673        0.00000
      28        13.5131        0.00000
      29        13.7575        0.00000
      30        15.6453        0.00000

 10/64 kpoint (Cartesian) = 0.0547516 0.158054 0.00000 (454 pws)
       1       -42.4303      0.0312500
       2       -42.2986      0.0312500
       3       -40.8758      0.0312500
       4       -40.8708      0.0312500
       5       -40.8489      0.0312500
       6       -40.8456      0.0312500
       7       -40.8441      0.0312500
       8       -40.7719      0.0312500
       9       -40.7656      0.0312500
      10       -40.7457      0.0312500
      11       -40.7348      0.0312500
      12       -40.7321      0.0312500
      13       -8.19085      0.0312500
      14       -8.05817      0.0312500
      15       0.459540      0.0312500
      16       0.679646      0.0312500
      17        1.05124      0.0312500
      18        1.17902      0.0312500
      19        1.35755      0.0312500
      20        1.62684      0.0312500
      21        9.11598        0.00000
      22        9.56857        0.00000
      23        10.3149        0.00000
      24        10.6752        0.00000
      25        11.0487        0.00000
      26        11.2010        0.00000
      27        11.9186        0.00000
      28        12.6106        0.00000
      29        13.7476        0.00000
      30        14.7067        0.00000

 11/64 kpoint (Cartesian) = 0.109503 0.189665 0.00000 (450 pws)
       1       -42.4297      0.0312500
       2       -42.2977      0.0312500
       3       -40.8757      0.0312500
       4       -40.8698      0.0312500
       5       -40.8485      0.0312500
       6       -40.8461      0.0312500
       7       -40.8455      0.0312500
       8       -40.7718      0.0312500
       9       -40.7659      0.0312500
      10       -40.7459      0.0312500
      11       -40.7346      0.0312500
      12       -40.7319      0.0312500
      13       -8.20403      0.0312500
      14       -8.05380      0.0312500
      15       0.280309      0.0312500
      16       0.803564      0.0312500
      17       0.966901      0.0312500
      18        1.17758      0.0312500
      19        1.52735      0.0312500
      20        1.77068      0.0312500
      21        8.87199        0.00000
      22        9.04268        0.00000
      23        9.57065        0.00000
      24        10.6109        0.00000
      25        11.4981        0.00000
      26        11.6653        0.00000
      27        12.0480        0.00000
      28        13.5002        0.00000
      29        13.7262        0.00000
      30        15.6157        0.00000

 12/64 kpoint (Cartesian) = 0.164255 0.221276 0.00000 (456 pws)
       1       -42.4303      0.0312500
       2       -42.2986      0.0312500
       3       -40.8758      0.0312500
       4       -40.8708      0.0312500
       5       -40.8489      0.0312500
       6       -40.8456      0.0312500
       7       -40.8441      0.0312500
       8       -40.7719      0.0312500
       9       -40.7656      0.0312500
      10       -40.7457      0.0312500
      11       -40.7348      0.0312500
      12       -40.7321      0.0312500
      13       -8.19085      0.0312500
      14       -8.05817      0.0312500
      15       0.459540      0.0312500
      16       0.679646      0.0312500
      17        1.05124      0.0312500
      18        1.17902      0.0312500
      19        1.35755      0.0312500
      20        1.62684      0.0312500
      21        9.11598        0.00000
      22        9.56857        0.00000
      23        10.3149        0.00000
      24        10.6752        0.00000
      25        11.0487        0.00000
      26        11.2010        0.00000
      27        11.9186        0.00000
      28        12.6106        0.00000
      29        13.7476        0.00000
      30        14.7067        0.00000

 13/64 kpoint (Cartesian) = 0.00000 0.189665 0.00000 (447 pws)
       1       -42.4285      0.0312500
       2       -42.2970      0.0312500
       3       -40.8752      0.0312500
       4       -40.8721      0.0312500
       5       -40.8500      0.0312500
       6       -40.8461      0.0312500
       7       -40.8446      0.0312500
       8       -40.7722      0.0312500
       9       -40.7653      0.0312500
      10       -40.7468      0.0312500
      11       -40.7359      0.0312500
      12       -40.7327      0.0312500
      13       -8.19836      0.0312500
      14       -8.08325      0.0312500
      15       0.388999      0.0312500
      16        1.06175      0.0312500
      17        1.32496      0.0312500
      18        1.44167      0.0312500
      19        1.86512      0.0312500
      20        1.96682      0.0312500
      21        8.09830        0.00000
      22        9.29440        0.00000
      23        9.71618        0.00000
      24        10.2006        0.00000
      25        10.5892        0.00000
      26        11.0748        0.00000
      27        11.7633        0.00000
      28        12.3471        0.00000
      29        14.4282        0.00000
      30        16.2586        0.00000

 14/64 kpoint (Cartesian) = 0.0547516 0.221276 0.00000 (447 pws)
       1       -42.4288      0.0312500
       2       -42.2969      0.0312500
       3       -40.8757      0.0312500
       4       -40.8706      0.0312500
       5       -40.8500      0.0312500
       6       -40.8464      0.0312500
       7       -40.8457      0.0312500
       8       -40.7722      0.0312500
       9       -40.7656      0.0312500
      10       -40.7469      0.0312500
      11       -40.7356      0.0312500
      12       -40.7325      0.0312500
      13       -8.21080      0.0312500
      14       -8.07893      0.0312500
      15       0.381436      0.0312500
      16        1.03296      0.0312500
      17        1.34741      0.0312500
      18        1.47855      0.0312500
      19        1.87531      0.0312500
      20        1.95127      0.0312500
      21        8.08005        0.00000
      22        9.31828        0.00000
      23        9.82010        0.00000
      24        10.2361        0.00000
      25        10.5328        0.00000
      26        11.1546        0.00000
      27        11.7739        0.00000
      28        12.2915        0.00000
      29        14.3237        0.00000
      30        16.3232        0.00000

 15/64 kpoint (Cartesian) = 0.109503 0.252887 0.00000 (444 pws)
       1       -42.4307      0.0312500
       2       -42.2990      0.0312500
       3       -40.8755      0.0312500
       4       -40.8698      0.0312500
       5       -40.8500      0.0312500
       6       -40.8455      0.0312500
       7       -40.8446      0.0312500
       8       -40.7713      0.0312500
       9       -40.7649      0.0312500
      10       -40.7463      0.0312500
      11       -40.7357      0.0312500
      12       -40.7317      0.0312500
      13       -8.21116      0.0312500
      14       -8.07352      0.0312500
      15       0.473241      0.0312500
      16       0.637052      0.0312500
      17        1.03463      0.0312500
      18        1.22386      0.0312500
      19        1.50466      0.0312500
      20        1.51875      0.0312500
      21        9.25023        0.00000
      22        9.47682        0.00000
      23        10.6391        0.00000
      24        10.8080        0.00000
      25        11.0473        0.00000
      26        11.4939        0.00000
      27        11.7129        0.00000
      28        12.9257        0.00000
      29        13.2042        0.00000
      30        15.1609        0.00000

 16/64 kpoint (Cartesian) = 0.164255 0.284498 0.00000 (447 pws)
       1       -42.4304      0.0312500
       2       -42.2990      0.0312500
       3       -40.8756      0.0312500
       4       -40.8707      0.0312500
       5       -40.8498      0.0312500
       6       -40.8457      0.0312500
       7       -40.8433      0.0312500
       8       -40.7712      0.0312500
       9       -40.7647      0.0312500
      10       -40.7462      0.0312500
      11       -40.7359      0.0312500
      12       -40.7319      0.0312500
      13       -8.19835      0.0312500
      14       -8.07797      0.0312500
      15       0.465554      0.0312500
      16       0.647415      0.0312500
      17        1.03232      0.0312500
      18        1.18384      0.0312500
      19        1.47831      0.0312500
      20        1.57635      0.0312500
      21        9.19572        0.00000
      22        9.50782        0.00000
      23        10.6344        0.00000
      24        10.7319        0.00000
      25        10.9914        0.00000
      26        11.3633        0.00000
      27        11.8114        0.00000
      28        12.9194        0.00000
      29        13.2994        0.00000
      30        15.0958        0.00000

 17/64 kpoint (Cartesian) = 0.00000 0.00000 0.0336765 (453 pws)
       1       -42.4268      0.0312500
       2       -42.2951      0.0312500
       3       -40.8752      0.0312500
       4       -40.8720      0.0312500
       5       -40.8514      0.0312500
       6       -40.8466      0.0312500
       7       -40.8460      0.0312500
       8       -40.7726      0.0312500
       9       -40.7654      0.0312500
      10       -40.7480      0.0312500
      11       -40.7367      0.0312500
      12       -40.7331      0.0312500
      13       -8.21750      0.0312500
      14       -8.10401      0.0312500
      15       0.402144      0.0312500
      16        1.61295      0.0312500
      17        1.73034      0.0312500
      18        1.91040      0.0312500
      19        1.99750      0.0312500
      20        2.20515      0.0312500
      21        7.45436        0.00000
      22        8.46435        0.00000
      23        9.76456        0.00000
      24        9.98385        0.00000
      25        10.1489        0.00000
      26        10.4787        0.00000
      27        11.1919        0.00000
      28        11.4649        0.00000
      29        16.3890        0.00000
      30        16.7242        0.00000

 18/64 kpoint (Cartesian) = 0.0547516 0.0316109 0.0336765 (455 pws)
       1       -42.4292      0.0312500
       2       -42.2976      0.0312500
       3       -40.8755      0.0312500
       4       -40.8705      0.0312500
       5       -40.8511      0.0312500
       6       -40.8459      0.0312500
       7       -40.8452      0.0312500
       8       -40.7717      0.0312500
       9       -40.7646      0.0312500
      10       -40.7475      0.0312500
      11       -40.7366      0.0312500
      12       -40.7325      0.0312500
      13       -8.21855      0.0312500
      14       -8.10006      0.0312500
      15       0.485789      0.0312500
      16        1.03653      0.0312500
      17        1.20232      0.0312500
      18        1.61216      0.0312500
      19        1.75544      0.0312500
      20        2.00967      0.0312500
      21        8.10348        0.00000
      22        9.16575        0.00000
      23        10.1982        0.00000
      24        10.4420        0.00000
      25        10.7414        0.00000
      26        11.0378        0.00000
      27        11.5017        0.00000
      28        11.9513        0.00000
      29        14.8160        0.00000
      30        16.2756        0.00000

 19/64 kpoint (Cartesian) = 0.109503 0.0632217 0.0336765 (458 pws)
       1       -42.4299      0.0312500
       2       -42.2984      0.0312500
       3       -40.8754      0.0312500
       4       -40.8697      0.0312500
       5       -40.8508      0.0312500
       6       -40.8455      0.0312500
       7       -40.8441      0.0312500
       8       -40.7707      0.0312500
       9       -40.7639      0.0312500
      10       -40.7469      0.0312500
      11       -40.7365      0.0312500
      12       -40.7319      0.0312500
      13       -8.21945      0.0312500
      14       -8.09574      0.0312500
      15       0.262894      0.0312500
      16       0.544906      0.0312500
      17        1.20809      0.0312500
      18        1.37722      0.0312500
      19        1.48046      0.0312500
      20        1.81963      0.0312500
      21        8.41643        0.00000
      22        8.94865        0.00000
      23        10.7287        0.00000
      24        10.9395        0.00000
      25        11.1280        0.00000
      26        11.9354        0.00000
      27        12.4699        0.00000
      28        12.8029        0.00000
      29        14.2306        0.00000
      30        15.6331        0.00000

 20/64 kpoint (Cartesian) = 0.164255 0.0948326 0.0336765 (456 pws)
       1       -42.4293      0.0312500
       2       -42.2976      0.0312500
       3       -40.8755      0.0312500
       4       -40.8705      0.0312500
       5       -40.8511      0.0312500
       6       -40.8459      0.0312500
       7       -40.8452      0.0312500
       8       -40.7717      0.0312500
       9       -40.7645      0.0312500
      10       -40.7475      0.0312500
      11       -40.7366      0.0312500
      12       -40.7325      0.0312500
      13       -8.21875      0.0312500
      14       -8.09954      0.0312500
      15       0.478761      0.0312500
      16        1.02853      0.0312500
      17        1.19543      0.0312500
      18        1.62524      0.0312500
      19        1.76917      0.0312500
      20        2.00996      0.0312500
      21        8.05882        0.00000
      22        9.19506        0.00000
      23        10.3266        0.00000
      24        10.5354        0.00000
      25        10.6883        0.00000
      26        10.8255        0.00000
      27        11.5562        0.00000
      28        11.8916        0.00000
      29        14.8787        0.00000
      30        16.1910        0.00000

 21/64 kpoint (Cartesian) = 0.00000 0.0632217 0.0336765 (451 pws)
       1       -42.4288      0.0312500
       2       -42.2972      0.0312500
       3       -40.8752      0.0312500
       4       -40.8721      0.0312500
       5       -40.8500      0.0312500
       6       -40.8461      0.0312500
       7       -40.8446      0.0312500
       8       -40.7722      0.0312500
       9       -40.7654      0.0312500
      10       -40.7468      0.0312500
      11       -40.7359      0.0312500
      12       -40.7327      0.0312500
      13       -8.19945      0.0312500
      14       -8.08416      0.0312500
      15       0.533174      0.0312500
      16        1.08698      0.0312500
      17        1.30543      0.0312500
      18        1.43683      0.0312500
      19        1.74324      0.0312500
      20        1.90319      0.0312500
      21        8.12607        0.00000
      22        9.10399        0.00000
      23        10.0867        0.00000
      24        10.3490        0.00000
      25        10.5263        0.00000
      26        10.8091        0.00000
      27        11.6197        0.00000
      28        12.1493        0.00000
      29        14.7830        0.00000
      30        16.3337        0.00000

 22/64 kpoint (Cartesian) = 0.0547516 0.0948326 0.0336765 (451 pws)
       1       -42.4302      0.0312500
       2       -42.2988      0.0312500
       3       -40.8756      0.0312500
       4       -40.8707      0.0312500
       5       -40.8498      0.0312500
       6       -40.8457      0.0312500
       7       -40.8433      0.0312500
       8       -40.7712      0.0312500
       9       -40.7647      0.0312500
      10       -40.7462      0.0312500
      11       -40.7359      0.0312500
      12       -40.7319      0.0312500
      13       -8.19960      0.0312500
      14       -8.07919      0.0312500
      15       0.504421      0.0312500
      16       0.608480      0.0312500
      17        1.06149      0.0312500
      18        1.15006      0.0312500
      19        1.44856      0.0312500
      20        1.66824      0.0312500
      21        9.11556        0.00000
      22        9.38241        0.00000
      23        10.3116        0.00000
      24        10.7787        0.00000
      25        10.9671        0.00000
      26        11.4673        0.00000
      27        12.0865        0.00000
      28        12.7004        0.00000
      29        14.1079        0.00000
      30        15.0471        0.00000

 23/64 kpoint (Cartesian) = 0.109503 0.126443 0.0336765 (455 pws)
       1       -42.4306      0.0312500
       2       -42.2987      0.0312500
       3       -40.8755      0.0312500
       4       -40.8698      0.0312500
       5       -40.8500      0.0312500
       6       -40.8455      0.0312500
       7       -40.8446      0.0312500
       8       -40.7713      0.0312500
       9       -40.7649      0.0312500
      10       -40.7463      0.0312500
      11       -40.7357      0.0312500
      12       -40.7317      0.0312500
      13       -8.21260      0.0312500
      14       -8.07442      0.0312500
      15       0.493505      0.0312500
      16       0.602984      0.0312500
      17        1.07722      0.0312500
      18        1.14192      0.0312500
      19        1.49472      0.0312500
      20        1.64935      0.0312500
      21        9.12457        0.00000
      22        9.36061        0.00000
      23        10.3406        0.00000
      24        10.7157        0.00000
      25        10.9759        0.00000
      26        11.5948        0.00000
      27        12.1797        0.00000
      28        12.6711        0.00000
      29        14.1082        0.00000
      30        15.1197        0.00000

 24/64 kpoint (Cartesian) = 0.164255 0.158054 0.0336765 (458 pws)
       1       -42.4290      0.0312500
       2       -42.2972      0.0312500
       3       -40.8757      0.0312500
       4       -40.8706      0.0312500
       5       -40.8500      0.0312500
       6       -40.8464      0.0312500
       7       -40.8457      0.0312500
       8       -40.7722      0.0312500
       9       -40.7656      0.0312500
      10       -40.7469      0.0312500
      11       -40.7356      0.0312500
      12       -40.7325      0.0312500
      13       -8.21198      0.0312500
      14       -8.07966      0.0312500
      15       0.513200      0.0312500
      16        1.07438      0.0312500
      17        1.25421      0.0312500
      18        1.51575      0.0312500
      19        1.80531      0.0312500
      20        1.87426      0.0312500
      21        8.13412        0.00000
      22        9.12157        0.00000
      23        9.96833        0.00000
      24        10.4440        0.00000
      25        10.4969        0.00000
      26        10.9835        0.00000
      27        11.5961        0.00000
      28        12.0836        0.00000
      29        14.7607        0.00000
      30        16.4775        0.00000

 25/64 kpoint (Cartesian) = 0.00000 0.126443 0.0336765 (450 pws)
       1       -42.4291      0.0312500
       2       -42.2978      0.0312500
       3       -40.8752      0.0312500
       4       -40.8721      0.0312500
       5       -40.8490      0.0312500
       6       -40.8458      0.0312500
       7       -40.8426      0.0312500
       8       -40.7717      0.0312500
       9       -40.7654      0.0312500
      10       -40.7456      0.0312500
      11       -40.7351      0.0312500
      12       -40.7322      0.0312500
      13       -8.17925      0.0312500
      14       -8.06392      0.0312500
      15       0.309494      0.0312500
      16       0.669373      0.0312500
      17        1.09628      0.0312500
      18        1.19621      0.0312500
      19        1.57974      0.0312500
      20        1.70026      0.0312500
      21        8.29819        0.00000
      22        8.85650        0.00000
      23        10.3439        0.00000
      24        10.6671        0.00000
      25        11.1933        0.00000
      26        11.4537        0.00000
      27        12.4833        0.00000
      28        12.9770        0.00000
      29        14.2567        0.00000
      30        15.9538        0.00000

 26/64 kpoint (Cartesian) = 0.0547516 0.158054 0.0336765 (451 pws)
       1       -42.4302      0.0312500
       2       -42.2985      0.0312500
       3       -40.8758      0.0312500
       4       -40.8708      0.0312500
       5       -40.8489      0.0312500
       6       -40.8456      0.0312500
       7       -40.8441      0.0312500
       8       -40.7719      0.0312500
       9       -40.7656      0.0312500
      10       -40.7457      0.0312500
      11       -40.7348      0.0312500
      12       -40.7321      0.0312500
      13       -8.19228      0.0312500
      14       -8.05910      0.0312500
      15       0.521556      0.0312500
      16       0.647403      0.0312500
      17        1.03043      0.0312500
      18        1.16550      0.0312500
      19        1.35450      0.0312500
      20        1.68035      0.0312500
      21        9.15448        0.00000
      22        9.32703        0.00000
      23        10.3996        0.00000
      24        10.5409        0.00000
      25        11.0036        0.00000
      26        11.2895        0.00000
      27        12.0254        0.00000
      28        12.4906        0.00000
      29        14.3340        0.00000
      30        14.7391        0.00000

 27/64 kpoint (Cartesian) = 0.109503 0.189665 0.0336765 (450 pws)
       1       -42.4296      0.0312500
       2       -42.2977      0.0312500
       3       -40.8756      0.0312500
       4       -40.8698      0.0312500
       5       -40.8485      0.0312500
       6       -40.8461      0.0312500
       7       -40.8455      0.0312500
       8       -40.7718      0.0312500
       9       -40.7659      0.0312500
      10       -40.7459      0.0312500
      11       -40.7346      0.0312500
      12       -40.7319      0.0312500
      13       -8.20539      0.0312500
      14       -8.05467      0.0312500
      15       0.288438      0.0312500
      16       0.636587      0.0312500
      17        1.14866      0.0312500
      18        1.25065      0.0312500
      19        1.59074      0.0312500
      20        1.67692      0.0312500
      21        8.32647        0.00000
      22        8.84331        0.00000
      23        10.3852        0.00000
      24        10.6558        0.00000
      25        11.3566        0.00000
      26        11.4814        0.00000
      27        12.4699        0.00000
      28        12.9832        0.00000
      29        14.2237        0.00000
      30        15.9060        0.00000

 28/64 kpoint (Cartesian) = 0.164255 0.221276 0.0336765 (451 pws)
       1       -42.4301      0.0312500
       2       -42.2985      0.0312500
       3       -40.8758      0.0312500
       4       -40.8707      0.0312500
       5       -40.8489      0.0312500
       6       -40.8456      0.0312500
       7       -40.8441      0.0312500
       8       -40.7719      0.0312500
       9       -40.7656      0.0312500
      10       -40.7457      0.0312500
      11       -40.7348      0.0312500
      12       -40.7321      0.0312500
      13       -8.19194      0.0312500
      14       -8.05914      0.0312500
      15       0.516393      0.0312500
      16       0.659051      0.0312500
      17        1.01921      0.0312500
      18        1.12874      0.0312500
      19        1.37102      0.0312500
      20        1.70893      0.0312500
      21        9.14416        0.00000
      22        9.32211        0.00000
      23        10.3786        0.00000
      24        10.5487        0.00000
      25        10.9935        0.00000
      26        11.3829        0.00000
      27        11.9206        0.00000
      28        12.4582        0.00000
      29        14.4757        0.00000
      30        14.7712        0.00000

 29/64 kpoint (Cartesian) = 0.00000 0.189665 0.0336765 (450 pws)
       1       -42.4288      0.0312500
       2       -42.2973      0.0312500
       3       -40.8752      0.0312500
       4       -40.8721      0.0312500
       5       -40.8500      0.0312500
       6       -40.8461      0.0312500
       7       -40.8446      0.0312500
       8       -40.7723      0.0312500
       9       -40.7653      0.0312500
      10       -40.7468      0.0312500
      11       -40.7359      0.0312500
      12       -40.7327      0.0312500
      13       -8.19896      0.0312500
      14       -8.08488      0.0312500
      15       0.533083      0.0312500
      16        1.13047      0.0312500
      17        1.25493      0.0312500
      18        1.44595      0.0312500
      19        1.78798      0.0312500
      20        1.85276      0.0312500
      21        8.18518        0.00000
      22        9.09548        0.00000
      23        9.84837        0.00000
      24        10.3891        0.00000
      25        10.6083        0.00000
      26        10.9198        0.00000
      27        11.7313        0.00000
      28        12.0069        0.00000
      29        14.7100        0.00000
      30        16.3621        0.00000

 30/64 kpoint (Cartesian) = 0.0547516 0.221276 0.0336765 (446 pws)
       1       -42.4291      0.0312500
       2       -42.2972      0.0312500
       3       -40.8757      0.0312500
       4       -40.8706      0.0312500
       5       -40.8500      0.0312500
       6       -40.8464      0.0312500
       7       -40.8457      0.0312500
       8       -40.7722      0.0312500
       9       -40.7656      0.0312500
      10       -40.7469      0.0312500
      11       -40.7356      0.0312500
      12       -40.7326      0.0312500
      13       -8.21157      0.0312500
      14       -8.08054      0.0312500
      15       0.518139      0.0312500
      16        1.06796      0.0312500
      17        1.30849      0.0312500
      18        1.50774      0.0312500
      19        1.76060      0.0312500
      20        1.86836      0.0312500
      21        8.13347        0.00000
      22        9.10014        0.00000
      23        10.1089        0.00000
      24        10.3713        0.00000
      25        10.4706        0.00000
      26        10.8943        0.00000
      27        11.6673        0.00000
      28        12.1336        0.00000
      29        14.6718        0.00000
      30        16.3591        0.00000

 31/64 kpoint (Cartesian) = 0.109503 0.252887 0.0336765 (440 pws)
       1       -42.4305      0.0312500
       2       -42.2988      0.0312500
[...]
       1       -42.4303      0.0312500
       2       -42.2988      0.0312500
       3       -40.8756      0.0312500
       4       -40.8707      0.0312500
       5       -40.8498      0.0312500
       6       -40.8457      0.0312500
       7       -40.8433      0.0312500
       8       -40.7713      0.0312500
       9       -40.7647      0.0312500
      10       -40.7462      0.0312500
      11       -40.7359      0.0312500
      12       -40.7319      0.0312500
      13       -8.19886      0.0312500
      14       -8.07984      0.0312500
      15       0.497838      0.0312500
      16       0.612910      0.0312500
      17        1.05675      0.0312500
      18        1.15035      0.0312500
      19        1.44997      0.0312500
      20        1.67510      0.0312500
      21        9.14616        0.00000
      22        9.33712        0.00000
      23        10.4039        0.00000
      24        10.7036        0.00000
      25        10.9380        0.00000
      26        11.4886        0.00000
      27        12.1364        0.00000
      28        12.6153        0.00000
      29        14.1165        0.00000
      30        15.0808        0.00000

 55/64 kpoint (Cartesian) = 0.109503 0.126443 0.101030 (455 pws)
       1       -42.4305      0.0312500
       2       -42.2988      0.0312500
       3       -40.8755      0.0312500
       4       -40.8698      0.0312500
       5       -40.8500      0.0312500
       6       -40.8455      0.0312500
       7       -40.8446      0.0312500
       8       -40.7713      0.0312500
       9       -40.7649      0.0312500
      10       -40.7463      0.0312500
      11       -40.7357      0.0312500
      12       -40.7317      0.0312500
      13       -8.21176      0.0312500
      14       -8.07550      0.0312500
      15       0.502039      0.0312500
      16       0.585030      0.0312500
      17        1.06057      0.0312500
      18        1.22087      0.0312500
      19        1.45759      0.0312500
      20        1.63142      0.0312500
      21        9.09128        0.00000
      22        9.42506        0.00000
      23        10.3782        0.00000
      24        10.6149        0.00000
      25        11.0613        0.00000
      26        11.4638        0.00000
      27        12.3456        0.00000
      28        12.6739        0.00000
      29        13.9212        0.00000
      30        15.1117        0.00000

 56/64 kpoint (Cartesian) = 0.164255 0.158054 0.101030 (458 pws)
       1       -42.4291      0.0312500
       2       -42.2972      0.0312500
       3       -40.8757      0.0312500
       4       -40.8706      0.0312500
       5       -40.8500      0.0312500
       6       -40.8464      0.0312500
       7       -40.8457      0.0312500
       8       -40.7722      0.0312500
       9       -40.7656      0.0312500
      10       -40.7469      0.0312500
      11       -40.7356      0.0312500
      12       -40.7326      0.0312500
      13       -8.21157      0.0312500
      14       -8.08054      0.0312500
      15       0.518139      0.0312500
      16        1.06796      0.0312500
      17        1.30849      0.0312500
      18        1.50774      0.0312500
      19        1.76060      0.0312500
      20        1.86836      0.0312500
      21        8.13347        0.00000
      22        9.10014        0.00000
      23        10.1089        0.00000
      24        10.3713        0.00000
      25        10.4706        0.00000
      26        10.8943        0.00000
      27        11.6673        0.00000
      28        12.1336        0.00000
      29        14.6718        0.00000
      30        16.3591        0.00000

 57/64 kpoint (Cartesian) = 0.00000 0.126443 0.101030 (450 pws)
       1       -42.4291      0.0312500
       2       -42.2978      0.0312500
       3       -40.8752      0.0312500
       4       -40.8721      0.0312500
       5       -40.8490      0.0312500
       6       -40.8458      0.0312500
       7       -40.8426      0.0312500
       8       -40.7717      0.0312500
       9       -40.7654      0.0312500
      10       -40.7456      0.0312500
      11       -40.7351      0.0312500
      12       -40.7322      0.0312500
      13       -8.17925      0.0312500
      14       -8.06392      0.0312500
      15       0.309494      0.0312500
      16       0.669373      0.0312500
      17        1.09628      0.0312500
      18        1.19621      0.0312500
      19        1.57974      0.0312500
      20        1.70026      0.0312500
      21        8.29819        0.00000
      22        8.85650        0.00000
      23        10.3439        0.00000
      24        10.6671        0.00000
      25        11.1933        0.00000
      26        11.4537        0.00000
      27        12.4833        0.00000
      28        12.9770        0.00000
      29        14.2567        0.00000
      30        15.9538        0.00000

 58/64 kpoint (Cartesian) = 0.0547516 0.158054 0.101030 (451 pws)
       1       -42.4301      0.0312500
       2       -42.2985      0.0312500
       3       -40.8758      0.0312500
       4       -40.8707      0.0312500
       5       -40.8489      0.0312500
       6       -40.8456      0.0312500
       7       -40.8441      0.0312500
       8       -40.7719      0.0312500
       9       -40.7656      0.0312500
      10       -40.7457      0.0312500
      11       -40.7348      0.0312500
      12       -40.7321      0.0312500
      13       -8.19194      0.0312500
      14       -8.05914      0.0312500
      15       0.516393      0.0312500
      16       0.659051      0.0312500
      17        1.01921      0.0312500
      18        1.12874      0.0312500
      19        1.37102      0.0312500
      20        1.70893      0.0312500
      21        9.14416        0.00000
      22        9.32211        0.00000
      23        10.3786        0.00000
      24        10.5487        0.00000
      25        10.9935        0.00000
      26        11.3829        0.00000
      27        11.9206        0.00000
      28        12.4582        0.00000
      29        14.4757        0.00000
      30        14.7712        0.00000

 59/64 kpoint (Cartesian) = 0.109503 0.189665 0.101030 (450 pws)
       1       -42.4296      0.0312500
       2       -42.2977      0.0312500
       3       -40.8756      0.0312500
       4       -40.8698      0.0312500
       5       -40.8485      0.0312500
       6       -40.8461      0.0312500
       7       -40.8455      0.0312500
       8       -40.7718      0.0312500
       9       -40.7659      0.0312500
      10       -40.7459      0.0312500
      11       -40.7346      0.0312500
      12       -40.7319      0.0312500
      13       -8.20539      0.0312500
      14       -8.05467      0.0312500
      15       0.288438      0.0312500
      16       0.636587      0.0312500
      17        1.14866      0.0312500
      18        1.25065      0.0312500
      19        1.59074      0.0312500
      20        1.67692      0.0312500
      21        8.32647        0.00000
      22        8.84331        0.00000
      23        10.3852        0.00000
      24        10.6558        0.00000
      25        11.3566        0.00000
      26        11.4814        0.00000
      27        12.4699        0.00000
      28        12.9832        0.00000
      29        14.2237        0.00000
      30        15.9060        0.00000

 60/64 kpoint (Cartesian) = 0.164255 0.221276 0.101030 (451 pws)
       1       -42.4302      0.0312500
       2       -42.2985      0.0312500
       3       -40.8758      0.0312500
       4       -40.8708      0.0312500
       5       -40.8489      0.0312500
       6       -40.8456      0.0312500
       7       -40.8441      0.0312500
       8       -40.7719      0.0312500
       9       -40.7656      0.0312500
      10       -40.7457      0.0312500
      11       -40.7348      0.0312500
      12       -40.7321      0.0312500
      13       -8.19228      0.0312500
      14       -8.05910      0.0312500
      15       0.521556      0.0312500
      16       0.647403      0.0312500
      17        1.03043      0.0312500
      18        1.16550      0.0312500
      19        1.35450      0.0312500
      20        1.68035      0.0312500
      21        9.15448        0.00000
      22        9.32703        0.00000
      23        10.3996        0.00000
      24        10.5409        0.00000
      25        11.0036        0.00000
      26        11.2895        0.00000
      27        12.0254        0.00000
      28        12.4906        0.00000
      29        14.3340        0.00000
      30        14.7391        0.00000

 61/64 kpoint (Cartesian) = 0.00000 0.189665 0.101030 (450 pws)
       1       -42.4288      0.0312500
       2       -42.2972      0.0312500
       3       -40.8752      0.0312500
       4       -40.8721      0.0312500
       5       -40.8500      0.0312500
       6       -40.8461      0.0312500
       7       -40.8446      0.0312500
       8       -40.7722      0.0312500
       9       -40.7654      0.0312500
      10       -40.7468      0.0312500
      11       -40.7359      0.0312500
      12       -40.7327      0.0312500
      13       -8.19945      0.0312500
      14       -8.08416      0.0312500
      15       0.533174      0.0312500
      16        1.08698      0.0312500
      17        1.30543      0.0312500
      18        1.43683      0.0312500
      19        1.74324      0.0312500
      20        1.90319      0.0312500
      21        8.12607        0.00000
      22        9.10399        0.00000
      23        10.0867        0.00000
      24        10.3490        0.00000
      25        10.5263        0.00000
      26        10.8091        0.00000
      27        11.6197        0.00000
      28        12.1493        0.00000
      29        14.7830        0.00000
      30        16.3337        0.00000

 62/64 kpoint (Cartesian) = 0.0547516 0.221276 0.101030 (446 pws)
       1       -42.4290      0.0312500
       2       -42.2972      0.0312500
       3       -40.8757      0.0312500
       4       -40.8706      0.0312500
       5       -40.8500      0.0312500
       6       -40.8464      0.0312500
       7       -40.8457      0.0312500
       8       -40.7722      0.0312500
       9       -40.7656      0.0312500
      10       -40.7469      0.0312500
      11       -40.7356      0.0312500
      12       -40.7325      0.0312500
      13       -8.21198      0.0312500
      14       -8.07966      0.0312500
      15       0.513200      0.0312500
      16        1.07438      0.0312500
      17        1.25421      0.0312500
      18        1.51575      0.0312500
      19        1.80531      0.0312500
      20        1.87426      0.0312500
      21        8.13412        0.00000
      22        9.12157        0.00000
      23        9.96833        0.00000
      24        10.4440        0.00000
      25        10.4969        0.00000
      26        10.9835        0.00000
      27        11.5961        0.00000
      28        12.0836        0.00000
      29        14.7607        0.00000
      30        16.4775        0.00000

 63/64 kpoint (Cartesian) = 0.109503 0.252887 0.101030 (440 pws)
       1       -42.4306      0.0312500
       2       -42.2987      0.0312500
       3       -40.8755      0.0312500
       4       -40.8698      0.0312500
       5       -40.8500      0.0312500
       6       -40.8455      0.0312500
       7       -40.8446      0.0312500
       8       -40.7713      0.0312500
       9       -40.7649      0.0312500
      10       -40.7463      0.0312500
      11       -40.7357      0.0312500
      12       -40.7317      0.0312500
      13       -8.21260      0.0312500
      14       -8.07442      0.0312500
      15       0.493505      0.0312500
      16       0.602984      0.0312500
      17        1.07722      0.0312500
      18        1.14192      0.0312500
      19        1.49472      0.0312500
      20        1.64935      0.0312500
      21        9.12457        0.00000
      22        9.36061        0.00000
      23        10.3406        0.00000
      24        10.7157        0.00000
      25        10.9759        0.00000
      26        11.5948        0.00000
      27        12.1797        0.00000
      28        12.6711        0.00000
      29        14.1082        0.00000
      30        15.1197        0.00000

 64/64 kpoint (Cartesian) = 0.164255 0.284498 0.101030 (449 pws)
       1       -42.4302      0.0312500
       2       -42.2988      0.0312500
       3       -40.8756      0.0312500
       4       -40.8707      0.0312500
       5       -40.8498      0.0312500
       6       -40.8457      0.0312500
       7       -40.8433      0.0312500
       8       -40.7712      0.0312500
       9       -40.7647      0.0312500
      10       -40.7462      0.0312500
      11       -40.7359      0.0312500
      12       -40.7319      0.0312500
      13       -8.19960      0.0312500
      14       -8.07919      0.0312500
      15       0.504421      0.0312500
      16       0.608480      0.0312500
      17        1.06149      0.0312500
      18        1.15006      0.0312500
      19        1.44856      0.0312500
      20        1.66824      0.0312500
      21        9.11556        0.00000
      22        9.38241        0.00000
      23        10.3116        0.00000
      24        10.7787        0.00000
      25        10.9671        0.00000
      26        11.4673        0.00000
      27        12.0865        0.00000
      28        12.7004        0.00000
      29        14.1079        0.00000
      30        15.0471        0.00000

 EFERMI = 4.105724110656211 eV
 OUT.ABACUS/ final etot is -5903.898934264869 eV
 Descriptors have been printed to .//descriptor.dat
 Calculate the energy density matrix with k 
                                      irr = 5405
                                 LNNR.nnr = 5405
                                      irr = 5405
                                 LNNR.nnr = 5405
 Calculate the energy density matrix with k 
                                      irr = 5405
                                 LNNR.nnr = 5405
                                      irr = 5405
                                 LNNR.nnr = 5405
 LNNR.nnrg in cal_force_k = 51522
 F_delta has been printed to .//F_delta.dat
 correction force for each atom along direction 1 is -2.25195e-05
 correction force for each atom along direction 2 is 8.76983e-06
 correction force for each atom along direction 3 is 1.65048e-05

 ><><><><><><><><><><><><><><><><><><><><><><

    TOTAL-FORCE (eV/Angstrom)

 ><><><><><><><><><><><><><><><><><><><><><><

     atom              x              y              z
      Li1    -0.28902883    -0.14362225   -0.096860313
      Li2    +0.11739051    +0.15156182   +0.055046131
       I1    -0.13294088    -0.16235859    +0.12967338
       I2    +0.30457920    +0.15441902   -0.087859195


 --------------------------------------------
 !FINAL_ETOT_IS -5903.898934264869 eV
 --------------------------------------------






  |CLASS_NAME---------|NAME---------------|TIME(Sec)-----|CALLS----|AVG------|PER%-------
                                      total         29.711        11       2.7   1.0e+02%
               Run_lcao           lcao_line         29.700         1       30.    1.e+02%
            ORB_control      read_orb_first        0.71806         1      0.72       2.4%
          LCAO_Orbitals       Read_Orbitals        0.71805         1      0.72       2.4%
            NOrbital_Lm       extra_uniform        0.56173        56     0.010       1.9%
          Mathzone_Add1       Uni_Deriv_Phi        0.52842        56    0.0094       1.8%
            ORB_control      set_orb_tables         8.5685         1       8.6       29.%
         ORB_gen_tables          gen_tables         8.5685         1       8.6       29.%
          ORB_table_phi          init_Table         1.7275         1       1.7       5.8%
          ORB_table_phi      cal_ST_Phi12_R         1.7107       232    0.0074       5.8%
         ORB_table_beta     init_Table_Beta        0.97522         1      0.98       3.3%
         ORB_table_beta       VNL_PhiBeta_R        0.96841       144    0.0067       3.3%
        ORB_table_alpha    init_Table_Alpha         5.6523         1       5.7       19.%
        ORB_table_alpha        S_PhiAlpha_R         5.6117       675    0.0083       19.%
                    FFT               FFT3D        0.10545       154   0.00068      0.35%
              Potential            v_of_rho        0.10724        11    0.0097      0.36%
                H_XC_pw                v_xc        0.10625        12    0.0089      0.36%
              LOOP_ions            opt_ions         20.044         1       20.       67.%
              LOOP_elec     solve_elec_stru         14.160         1       14.       48.%
              LOOP_elec              solver         14.002         1       14.       47.%
               ELEC_scf                 scf         14.002         1       14.       47.%
          ELEC_cbands_k           cal_bands         11.166         9       1.2       38.%
            LCAO_Deepks  cal_projected_DM_k         13.035        11       1.2       44.%
        LCAO_DESCRIPTOR       add_v_delta_k         1.7087         9      0.19       5.8%
                 Gint_k              vlocal         2.3091         9      0.26       7.8%
             Efficience              each_k         3.3098       576    0.0057       11.%
             Efficience                 H_k         1.2251       576    0.0021       4.1%
            LCAO_Hamilt        calculate_Hk         1.2240       576    0.0021       4.1%
                 Gint_k        folding_vl_k        0.29702       576   0.00052       1.0%
                 Gint_k              Distri        0.15910       576   0.00028      0.54%
               LCAO_nnr      folding_fixedH        0.92444       576    0.0016       3.1%
             Efficience             diago_k         2.0841       576    0.0036       7.0%
      Diago_LCAO_Matrix          elpa_solve         1.9777       576    0.0034       6.7%
      Local_Orbital_Cha           sum_bands         2.6420         9      0.29       8.9%
            LCAO_Charge            cal_dk_k        0.82320         9     0.091       2.8%
                 Gint_k           cal_rho_k         1.6726         9      0.19       5.6%
              LOOP_ions        force_stress         5.4886         1       5.5       18.%
      Force_Stress_LCAO      getForceStress         5.4885         1       5.5       18.%
           Force_LCAO_k            ftable_k         2.8627         1       2.9       9.6%
           Force_LCAO_k      cal_foverlap_k        0.15615         1      0.16      0.53%
           Force_LCAO_k           set_EDM_k        0.29591         2      0.15       1.0%
           Force_LCAO_k      cal_fvl_dphi_k         1.5912         1       1.6       5.4%
                 Gint_k     svl_k_RealSpace         1.5327         1       1.5       5.2%
                 Gint_k   evaluate_vl_force         1.3607      1728   0.00079       4.6%
            LCAO_Deepkscal_f_delta_hf_k_new        0.41747         1      0.42       1.4%
            LCAO_Deepks          cal_gdmx_k         2.4992         1       2.5       8.4%
 ----------------------------------------------------------------------------------------

 CLASS_NAME---------|NAME---------------|MEMORY(MB)--------
                                         2.855e+04
        ORB_table_phi               Jl(x)          107.2
      ORB_table_alpha           Table_DSR          10.79
        ORB_table_phi         Table_SR&TR          5.290
       ORB_table_beta            Table_NR          2.380
        Grid_Meshcell        index2normal          2.234
        Grid_Meshcell         index2ucell          2.234
        init_meshball        meshball_pos          1.909
 ----------------------------------------------------------

 Start  Time  : Wed Apr  6 22:29:34 2022
 Finish Time  : Wed Apr  6 22:30:04 2022
 Total  Time  : 0 h 0 mins 30 secs 
