 *********************************************************
 *                                                       *
 *                  WELCOME TO ABACUS                    *
 *                                                       *
 *            'Atomic-orbital Based Ab-initio            *
 *                  Computation at UStc'                 *
 *                                                       *
 *          Website: http://abacus.ustc.edu.cn/          *
 *                                                       *
 *********************************************************
 Sun Mar 27 22:21:38 2022
 MAKE THE DIR         : OUT.ABACUS/
 dft_functional readin is: pbe
 dft_functional in pseudopot file is: PBE
In Pseudopot_upf::read_pseudo_header : input xc functional does not match that in pseudopot file
Please make sure this is what you need
 dft_functional readin is: pbe
 dft_functional in pseudopot file is: PBE
In Pseudopot_upf::read_pseudo_header : input xc functional does not match that in pseudopot file
Please make sure this is what you need
 DONE(0.0428176  SEC) : SETUP UNITCELL
 DONE(0.0458267  SEC) : INIT K-POINTS
 ---------------------------------------------------------
 Self-consistent calculations for electrons
 ---------------------------------------------------------
 SPIN    KPOINTS         PROCESSORS  NBASE       
 1       125             16          62          
 ---------------------------------------------------------
 Use Systematically Improvable Atomic bases
 ---------------------------------------------------------
 ELEMENT ORBITALS        NBASE       NATOM       XC          
 Ga      2s2p2d-9au      18          2           PBE
 N       2s2p1d-8au      13          2           PBE
 ---------------------------------------------------------
 Initial plane wave basis and FFT box
 ---------------------------------------------------------
 SET NONLOCAL PSEUDOPOTENTIAL PROJECTORS
 SET NONLOCAL PSEUDOPOTENTIAL PROJECTORS
 DONE(10.9928    SEC) : INIT PLANEWAVE
 UNIFORM GRID DIM     : 30 * 30 * 50
 UNIFORM GRID DIM(BIG): 15 * 15 * 25
 DONE(10.9938    SEC) : INIT CHARGE
 DONE(10.9939    SEC) : INIT POTENTIAL
 START POTENTIAL      : atomic
 -------------------------------------------
 SELF-CONSISTENT : 
 -------------------------------------------
 ITER   ETOT(eV)       EDIFF(eV)      DRHO2      TIME(s)    
 GE1    -4.103049e+03  0.000000e+00   1.395e-01  6.453e+00  
 GE2    -4.094304e+03  8.744840e+00   3.548e-02  1.441e+01  
 GE3    -4.092085e+03  2.219260e+00   2.100e-02  1.441e+01  
 GE4    -4.092222e+03  -1.373044e-01  4.378e-03  1.420e+01  
 GE5    -4.092150e+03  7.225923e-02   2.070e-03  1.401e+01  
 GE6    -4.092212e+03  -6.195019e-02  6.933e-04  1.412e+01  
 GE7    -4.092175e+03  3.633124e-02   1.023e-03  1.425e+01  
 GE8    -4.092208e+03  -3.239851e-02  2.443e-04  1.414e+01  
 GE9    -4.092188e+03  1.988305e-02   5.329e-04  1.419e+01  
 GE10   -4.092200e+03  -1.233093e-02  5.916e-05  1.418e+01  
 GE11   -4.092194e+03  6.337477e-03   2.580e-04  1.417e+01  
 GE12   -4.092197e+03  -3.472365e-03  8.789e-05  1.407e+01  
 GE13   -4.092195e+03  2.126926e-03   1.365e-04  1.409e+01  
 GE14   -4.092196e+03  -1.041839e-03  7.944e-05  1.411e+01  
 GE15   -4.092196e+03  3.654859e-04   5.387e-05  1.421e+01  
 GE16   -4.092196e+03  -6.545012e-05  2.989e-05  1.413e+01  
 GE17   -4.092196e+03  9.754904e-05   1.299e-05  1.410e+01  
 GE18   -4.092196e+03  5.253773e-05   3.563e-06  1.423e+01  
 GE19   -4.092196e+03  1.041672e-05   5.970e-06  1.414e+01  
 GE20   -4.092196e+03  1.342010e-04   1.736e-06  1.410e+01  
 GE21   -4.092196e+03  -6.858687e-05  3.960e-07  1.414e+01  
E_delta_band = 1.40436416e+00 Ry = 1.91073546e+01 eV
E_delta_NN= 1.61152258e+00 Ry = 2.19258895e+01 eV

  |CLASS_NAME---------|NAME---------------|TIME(Sec)-----|CALLS----|AVG------|PER%-------
                       total               374.3          11        34        1e+02     %
   Run_lcao            lcao_line           374.28         1         3.7e+02   1e+02     %
   ORB_control         read_orb_first      0.71658        1         0.72      0.19      %
   LCAO_Orbitals       Read_Orbitals       0.71658        1         0.72      0.19      %
   NOrbital_Lm         extra_uniform       0.54918        56        0.0098    0.15      %
   Mathzone_Add1       Uni_Deriv_Phi       0.51055        56        0.0091    0.14      %
   ORB_control         set_orb_tables      10.087         1         10        2.7       %
   ORB_gen_tables      gen_tables          10.087         1         10        2.7       %
   ORB_table_phi       init_Table          2.1277         1         2.1       0.57      %
   ORB_table_phi       cal_ST_Phi12_R      2.1044         270       0.0078    0.56      %
   ORB_table_beta      init_Table_Beta     1.0747         1         1.1       0.29      %
   ORB_table_beta      VNL_PhiBeta_R       1.0648         158       0.0067    0.28      %
   ORB_table_alpha     init_Table_Alpha    6.4928         1         6.5       1.7       %
   ORB_table_alpha     S_PhiAlpha_R        6.4462         750       0.0086    1.7       %
   LOOP_ions           opt_ions            363.21         1         3.6e+02   97        %
   LOOP_elec           solve_elec_stru     290.55         1         2.9e+02   78        %
   Grid_Driver         Find_atom           0.54454        21456     2.5e-05   0.15      %
   LOOP_elec           before_solver       0.36658        1         0.37      0.098     %
   LCAO_Hamilt         set_lcao_matrices   0.14682        1         0.15      0.039     %
   LCAO_gen_fixedH     build_Nonlocal_mu_new0.35521        2         0.18      0.095     %
   LCAO_Deepks         build_psialpha      0.20534        1         0.21      0.055     %
   ORB_gen_tables      snap_psialpha_half  0.18561        2162      8.6e-05   0.05      %
   LOOP_elec           solver              290.1          1         2.9e+02   78        %
   ELEC_scf            scf                 290.1          1         2.9e+02   78        %
   H_Ewald_pw          compute_ewald       0.19084        1         0.19      0.051     %
   ELEC_cbands_k       cal_bands           268.4          21        13        72        %
   LCAO_Deepks         cal_projected_DM_k  140.21         23        6.1       37        %
   LCAO_DESCRIPTOR     add_v_delta_k       59.114         21        2.8       16        %
   Gint_k              vlocal              11.156         21        0.53      3         %
   Efficience          each_k              38.129         2625      0.015     10        %
   Efficience          H_k                 27.078         2625      0.01      7.2       %
   LCAO_Hamilt         calculate_Hk        27.073         2625      0.01      7.2       %
   Gint_k              folding_vl_k        7.6517         2625      0.0029    2         %
   Gint_k              Distri              5.4609         2625      0.0021    1.5       %
   LCAO_nnr            folding_fixedH      19.408         2625      0.0074    5.2       %
   Efficience          diago_k             11.048         2625      0.0042    3         %
   Diago_LCAO_Matrix   elpa_solve          10.433         2625      0.004     2.8       %
   Diago_LCAO_Matrix   gath_eig_complex    0.45622        2625      0.00017   0.12      %
   Local_Orbital_Cha   sum_bands           21.329         21        1         5.7       %
   LCAO_Charge         cal_dk_k            11.699         21        0.56      3.1       %
   Gint_k              cal_rho_k           7.3219         21        0.35      2         %
   LOOP_ions           force_stress        64.632         1         65        17        %
   Force_Stress_LCAO   getForceStress      64.631         1         65        17        %
   Force_LCAO_k        ftable_k            25.951         1         26        6.9       %
   Force_LCAO_k        allocate_k          0.37208        1         0.37      0.099     %
   Force_LCAO_k        cal_foverlap_k      1.0886         1         1.1       0.29      %
   Force_LCAO_k        set_EDM_k           2.0736         2         1         0.55      %
   Force_LCAO_k        cal_fvl_dphi_k      5.7535         1         5.8       1.5       %
   Gint_k              svl_k_RealSpace     5.7081         1         5.7       1.5       %
   Gint_k              evaluate_vl_force   5.0295         450       0.011     1.3       %
   Gint_k              folding_force       0.43349        1         0.43      0.12      %
   Force_LCAO_k        cal_fvnl_dbeta_k_new0.78198        1         0.78      0.21      %
   LCAO_Deepks         cal_f_delta_hf_k_new8.6514         1         8.7       2.3       %
   LCAO_Deepks         cal_gdmx_k          38.583         1         39        10        %
 ----------------------------------------------------------------------------------------

 START  Time  : Sun Mar 27 22:21:38 2022
 FINISH Time  : Sun Mar 27 22:27:53 2022
 TOTAL  Time  : 3.8e+02
 SEE INFORMATION IN : OUT.ABACUS/
